+ 0 0 1 tcp 40 ------- 2 0.0 3.0 0 0
- 0 0 1 tcp 40 ------- 2 0.0 3.0 0 0
r 0.010032 0 1 tcp 40 ------- 2 0.0 3.0 0 0
+ 0.010032 1 2 tcp 40 ------- 2 0.0 3.0 0 0
- 0.010032 1 2 tcp 40 ------- 2 0.0 3.0 0 0
r 0.020064 1 2 tcp 40 ------- 2 0.0 3.0 0 0
+ 0.020064 2 3 tcp 40 ------- 2 0.0 3.0 0 0
- 0.020064 2 3 tcp 40 ------- 2 0.0 3.0 0 0
r 0.030096 2 3 tcp 40 ------- 2 0.0 3.0 0 0
+ 0.030096 3 2 ack 40 ------- 2 3.0 0.0 0 1
- 0.030096 3 2 ack 40 ------- 2 3.0 0.0 0 1
r 0.040128 3 2 ack 40 ------- 2 3.0 0.0 0 1
+ 0.040128 2 1 ack 40 ------- 2 3.0 0.0 0 1
- 0.040128 2 1 ack 40 ------- 2 3.0 0.0 0 1
r 0.05016 2 1 ack 40 ------- 2 3.0 0.0 0 1
+ 0.05016 1 0 ack 40 ------- 2 3.0 0.0 0 1
- 0.05016 1 0 ack 40 ------- 2 3.0 0.0 0 1
r 0.060192 1 0 ack 40 ------- 2 3.0 0.0 0 1
+ 0.060192 0 1 tcp 1040 ------- 2 0.0 3.0 1 2
- 0.060192 0 1 tcp 1040 ------- 2 0.0 3.0 1 2
+ 0.060192 0 1 tcp 1040 ------- 2 0.0 3.0 2 3
- 0.061024 0 1 tcp 1040 ------- 2 0.0 3.0 2 3
r 0.071024 0 1 tcp 1040 ------- 2 0.0 3.0 1 2
+ 0.071024 1 2 tcp 1040 ------- 2 0.0 3.0 1 2
- 0.071024 1 2 tcp 1040 ------- 2 0.0 3.0 1 2
r 0.071856 0 1 tcp 1040 ------- 2 0.0 3.0 2 3
+ 0.071856 1 2 tcp 1040 ------- 2 0.0 3.0 2 3
- 0.071856 1 2 tcp 1040 ------- 2 0.0 3.0 2 3
r 0.081856 1 2 tcp 1040 ------- 2 0.0 3.0 1 2
+ 0.081856 2 3 tcp 1040 ------- 2 0.0 3.0 1 2
- 0.081856 2 3 tcp 1040 ------- 2 0.0 3.0 1 2
r 0.082688 1 2 tcp 1040 ------- 2 0.0 3.0 2 3
+ 0.082688 2 3 tcp 1040 ------- 2 0.0 3.0 2 3
- 0.082688 2 3 tcp 1040 ------- 2 0.0 3.0 2 3
r 0.092688 2 3 tcp 1040 ------- 2 0.0 3.0 1 2
+ 0.092688 3 2 ack 40 ------- 2 3.0 0.0 1 4
- 0.092688 3 2 ack 40 ------- 2 3.0 0.0 1 4
r 0.09352 2 3 tcp 1040 ------- 2 0.0 3.0 2 3
+ 0.09352 3 2 ack 40 ------- 2 3.0 0.0 2 5
- 0.09352 3 2 ack 40 ------- 2 3.0 0.0 2 5
r 0.10272 3 2 ack 40 ------- 2 3.0 0.0 1 4
+ 0.10272 2 1 ack 40 ------- 2 3.0 0.0 1 4
- 0.10272 2 1 ack 40 ------- 2 3.0 0.0 1 4
r 0.103552 3 2 ack 40 ------- 2 3.0 0.0 2 5
+ 0.103552 2 1 ack 40 ------- 2 3.0 0.0 2 5
- 0.103552 2 1 ack 40 ------- 2 3.0 0.0 2 5
r 0.112752 2 1 ack 40 ------- 2 3.0 0.0 1 4
+ 0.112752 1 0 ack 40 ------- 2 3.0 0.0 1 4
- 0.112752 1 0 ack 40 ------- 2 3.0 0.0 1 4
r 0.113584 2 1 ack 40 ------- 2 3.0 0.0 2 5
+ 0.113584 1 0 ack 40 ------- 2 3.0 0.0 2 5
- 0.113584 1 0 ack 40 ------- 2 3.0 0.0 2 5
r 0.122784 1 0 ack 40 ------- 2 3.0 0.0 1 4
+ 0.122784 0 1 tcp 1040 ------- 2 0.0 3.0 3 6
- 0.122784 0 1 tcp 1040 ------- 2 0.0 3.0 3 6
+ 0.122784 0 1 tcp 1040 ------- 2 0.0 3.0 4 7
r 0.123616 1 0 ack 40 ------- 2 3.0 0.0 2 5
+ 0.123616 0 1 tcp 1040 ------- 2 0.0 3.0 5 8
+ 0.123616 0 1 tcp 1040 ------- 2 0.0 3.0 6 9
- 0.123616 0 1 tcp 1040 ------- 2 0.0 3.0 4 7
- 0.124448 0 1 tcp 1040 ------- 2 0.0 3.0 5 8
- 0.12528 0 1 tcp 1040 ------- 2 0.0 3.0 6 9
r 0.133616 0 1 tcp 1040 ------- 2 0.0 3.0 3 6
+ 0.133616 1 2 tcp 1040 ------- 2 0.0 3.0 3 6
- 0.133616 1 2 tcp 1040 ------- 2 0.0 3.0 3 6
r 0.134448 0 1 tcp 1040 ------- 2 0.0 3.0 4 7
+ 0.134448 1 2 tcp 1040 ------- 2 0.0 3.0 4 7
- 0.134448 1 2 tcp 1040 ------- 2 0.0 3.0 4 7
r 0.13528 0 1 tcp 1040 ------- 2 0.0 3.0 5 8
+ 0.13528 1 2 tcp 1040 ------- 2 0.0 3.0 5 8
- 0.13528 1 2 tcp 1040 ------- 2 0.0 3.0 5 8
r 0.136112 0 1 tcp 1040 ------- 2 0.0 3.0 6 9
+ 0.136112 1 2 tcp 1040 ------- 2 0.0 3.0 6 9
- 0.136112 1 2 tcp 1040 ------- 2 0.0 3.0 6 9
r 0.144448 1 2 tcp 1040 ------- 2 0.0 3.0 3 6
+ 0.144448 2 3 tcp 1040 ------- 2 0.0 3.0 3 6
- 0.144448 2 3 tcp 1040 ------- 2 0.0 3.0 3 6
r 0.14528 1 2 tcp 1040 ------- 2 0.0 3.0 4 7
+ 0.14528 2 3 tcp 1040 ------- 2 0.0 3.0 4 7
- 0.14528 2 3 tcp 1040 ------- 2 0.0 3.0 4 7
r 0.146112 1 2 tcp 1040 ------- 2 0.0 3.0 5 8
+ 0.146112 2 3 tcp 1040 ------- 2 0.0 3.0 5 8
- 0.146112 2 3 tcp 1040 ------- 2 0.0 3.0 5 8
r 0.146944 1 2 tcp 1040 ------- 2 0.0 3.0 6 9
+ 0.146944 2 3 tcp 1040 ------- 2 0.0 3.0 6 9
- 0.146944 2 3 tcp 1040 ------- 2 0.0 3.0 6 9
r 0.15528 2 3 tcp 1040 ------- 2 0.0 3.0 3 6
+ 0.15528 3 2 ack 40 ------- 2 3.0 0.0 3 10
- 0.15528 3 2 ack 40 ------- 2 3.0 0.0 3 10
r 0.156112 2 3 tcp 1040 ------- 2 0.0 3.0 4 7
+ 0.156112 3 2 ack 40 ------- 2 3.0 0.0 4 11
- 0.156112 3 2 ack 40 ------- 2 3.0 0.0 4 11
r 0.156944 2 3 tcp 1040 ------- 2 0.0 3.0 5 8
+ 0.156944 3 2 ack 40 ------- 2 3.0 0.0 5 12
- 0.156944 3 2 ack 40 ------- 2 3.0 0.0 5 12
r 0.157776 2 3 tcp 1040 ------- 2 0.0 3.0 6 9
+ 0.157776 3 2 ack 40 ------- 2 3.0 0.0 6 13
- 0.157776 3 2 ack 40 ------- 2 3.0 0.0 6 13
r 0.165312 3 2 ack 40 ------- 2 3.0 0.0 3 10
+ 0.165312 2 1 ack 40 ------- 2 3.0 0.0 3 10
- 0.165312 2 1 ack 40 ------- 2 3.0 0.0 3 10
r 0.166144 3 2 ack 40 ------- 2 3.0 0.0 4 11
+ 0.166144 2 1 ack 40 ------- 2 3.0 0.0 4 11
- 0.166144 2 1 ack 40 ------- 2 3.0 0.0 4 11
r 0.166976 3 2 ack 40 ------- 2 3.0 0.0 5 12
+ 0.166976 2 1 ack 40 ------- 2 3.0 0.0 5 12
- 0.166976 2 1 ack 40 ------- 2 3.0 0.0 5 12
r 0.167808 3 2 ack 40 ------- 2 3.0 0.0 6 13
+ 0.167808 2 1 ack 40 ------- 2 3.0 0.0 6 13
- 0.167808 2 1 ack 40 ------- 2 3.0 0.0 6 13
r 0.175344 2 1 ack 40 ------- 2 3.0 0.0 3 10
+ 0.175344 1 0 ack 40 ------- 2 3.0 0.0 3 10
- 0.175344 1 0 ack 40 ------- 2 3.0 0.0 3 10
r 0.176176 2 1 ack 40 ------- 2 3.0 0.0 4 11
+ 0.176176 1 0 ack 40 ------- 2 3.0 0.0 4 11
- 0.176176 1 0 ack 40 ------- 2 3.0 0.0 4 11
r 0.177008 2 1 ack 40 ------- 2 3.0 0.0 5 12
+ 0.177008 1 0 ack 40 ------- 2 3.0 0.0 5 12
- 0.177008 1 0 ack 40 ------- 2 3.0 0.0 5 12
r 0.17784 2 1 ack 40 ------- 2 3.0 0.0 6 13
+ 0.17784 1 0 ack 40 ------- 2 3.0 0.0 6 13
- 0.17784 1 0 ack 40 ------- 2 3.0 0.0 6 13
r 0.185376 1 0 ack 40 ------- 2 3.0 0.0 3 10
+ 0.185376 0 1 tcp 1040 ------- 2 0.0 3.0 7 14
- 0.185376 0 1 tcp 1040 ------- 2 0.0 3.0 7 14
+ 0.185376 0 1 tcp 1040 ------- 2 0.0 3.0 8 15
r 0.186208 1 0 ack 40 ------- 2 3.0 0.0 4 11
+ 0.186208 0 1 tcp 1040 ------- 2 0.0 3.0 9 16
+ 0.186208 0 1 tcp 1040 ------- 2 0.0 3.0 10 17
- 0.186208 0 1 tcp 1040 ------- 2 0.0 3.0 8 15
r 0.18704 1 0 ack 40 ------- 2 3.0 0.0 5 12
+ 0.18704 0 1 tcp 1040 ------- 2 0.0 3.0 11 18
+ 0.18704 0 1 tcp 1040 ------- 2 0.0 3.0 12 19
- 0.18704 0 1 tcp 1040 ------- 2 0.0 3.0 9 16
- 0.187872 0 1 tcp 1040 ------- 2 0.0 3.0 10 17
r 0.187872 1 0 ack 40 ------- 2 3.0 0.0 6 13
+ 0.187872 0 1 tcp 1040 ------- 2 0.0 3.0 13 20
+ 0.187872 0 1 tcp 1040 ------- 2 0.0 3.0 14 21
- 0.188704 0 1 tcp 1040 ------- 2 0.0 3.0 11 18
- 0.189536 0 1 tcp 1040 ------- 2 0.0 3.0 12 19
- 0.190368 0 1 tcp 1040 ------- 2 0.0 3.0 13 20
- 0.1912 0 1 tcp 1040 ------- 2 0.0 3.0 14 21
r 0.196208 0 1 tcp 1040 ------- 2 0.0 3.0 7 14
+ 0.196208 1 2 tcp 1040 ------- 2 0.0 3.0 7 14
- 0.196208 1 2 tcp 1040 ------- 2 0.0 3.0 7 14
r 0.19704 0 1 tcp 1040 ------- 2 0.0 3.0 8 15
+ 0.19704 1 2 tcp 1040 ------- 2 0.0 3.0 8 15
- 0.19704 1 2 tcp 1040 ------- 2 0.0 3.0 8 15
r 0.197872 0 1 tcp 1040 ------- 2 0.0 3.0 9 16
+ 0.197872 1 2 tcp 1040 ------- 2 0.0 3.0 9 16
- 0.197872 1 2 tcp 1040 ------- 2 0.0 3.0 9 16
r 0.198704 0 1 tcp 1040 ------- 2 0.0 3.0 10 17
+ 0.198704 1 2 tcp 1040 ------- 2 0.0 3.0 10 17
- 0.198704 1 2 tcp 1040 ------- 2 0.0 3.0 10 17
r 0.199536 0 1 tcp 1040 ------- 2 0.0 3.0 11 18
+ 0.199536 1 2 tcp 1040 ------- 2 0.0 3.0 11 18
- 0.199536 1 2 tcp 1040 ------- 2 0.0 3.0 11 18
r 0.200368 0 1 tcp 1040 ------- 2 0.0 3.0 12 19
+ 0.200368 1 2 tcp 1040 ------- 2 0.0 3.0 12 19
- 0.200368 1 2 tcp 1040 ------- 2 0.0 3.0 12 19
r 0.2012 0 1 tcp 1040 ------- 2 0.0 3.0 13 20
+ 0.2012 1 2 tcp 1040 ------- 2 0.0 3.0 13 20
- 0.2012 1 2 tcp 1040 ------- 2 0.0 3.0 13 20
r 0.202032 0 1 tcp 1040 ------- 2 0.0 3.0 14 21
+ 0.202032 1 2 tcp 1040 ------- 2 0.0 3.0 14 21
- 0.202032 1 2 tcp 1040 ------- 2 0.0 3.0 14 21
r 0.20704 1 2 tcp 1040 ------- 2 0.0 3.0 7 14
+ 0.20704 2 3 tcp 1040 ------- 2 0.0 3.0 7 14
- 0.20704 2 3 tcp 1040 ------- 2 0.0 3.0 7 14
r 0.207872 1 2 tcp 1040 ------- 2 0.0 3.0 8 15
+ 0.207872 2 3 tcp 1040 ------- 2 0.0 3.0 8 15
- 0.207872 2 3 tcp 1040 ------- 2 0.0 3.0 8 15
r 0.208704 1 2 tcp 1040 ------- 2 0.0 3.0 9 16
+ 0.208704 2 3 tcp 1040 ------- 2 0.0 3.0 9 16
- 0.208704 2 3 tcp 1040 ------- 2 0.0 3.0 9 16
r 0.209536 1 2 tcp 1040 ------- 2 0.0 3.0 10 17
+ 0.209536 2 3 tcp 1040 ------- 2 0.0 3.0 10 17
- 0.209536 2 3 tcp 1040 ------- 2 0.0 3.0 10 17
r 0.210368 1 2 tcp 1040 ------- 2 0.0 3.0 11 18
+ 0.210368 2 3 tcp 1040 ------- 2 0.0 3.0 11 18
- 0.210368 2 3 tcp 1040 ------- 2 0.0 3.0 11 18
r 0.2112 1 2 tcp 1040 ------- 2 0.0 3.0 12 19
+ 0.2112 2 3 tcp 1040 ------- 2 0.0 3.0 12 19
- 0.2112 2 3 tcp 1040 ------- 2 0.0 3.0 12 19
r 0.212032 1 2 tcp 1040 ------- 2 0.0 3.0 13 20
+ 0.212032 2 3 tcp 1040 ------- 2 0.0 3.0 13 20
- 0.212032 2 3 tcp 1040 ------- 2 0.0 3.0 13 20
r 0.212864 1 2 tcp 1040 ------- 2 0.0 3.0 14 21
+ 0.212864 2 3 tcp 1040 ------- 2 0.0 3.0 14 21
- 0.212864 2 3 tcp 1040 ------- 2 0.0 3.0 14 21
r 0.217872 2 3 tcp 1040 ------- 2 0.0 3.0 7 14
+ 0.217872 3 2 ack 40 ------- 2 3.0 0.0 7 22
- 0.217872 3 2 ack 40 ------- 2 3.0 0.0 7 22
r 0.218704 2 3 tcp 1040 ------- 2 0.0 3.0 8 15
+ 0.218704 3 2 ack 40 ------- 2 3.0 0.0 8 23
- 0.218704 3 2 ack 40 ------- 2 3.0 0.0 8 23
r 0.219536 2 3 tcp 1040 ------- 2 0.0 3.0 9 16
+ 0.219536 3 2 ack 40 ------- 2 3.0 0.0 9 24
- 0.219536 3 2 ack 40 ------- 2 3.0 0.0 9 24
r 0.220368 2 3 tcp 1040 ------- 2 0.0 3.0 10 17
+ 0.220368 3 2 ack 40 ------- 2 3.0 0.0 10 25
- 0.220368 3 2 ack 40 ------- 2 3.0 0.0 10 25
r 0.2212 2 3 tcp 1040 ------- 2 0.0 3.0 11 18
+ 0.2212 3 2 ack 40 ------- 2 3.0 0.0 11 26
- 0.2212 3 2 ack 40 ------- 2 3.0 0.0 11 26
r 0.222032 2 3 tcp 1040 ------- 2 0.0 3.0 12 19
+ 0.222032 3 2 ack 40 ------- 2 3.0 0.0 12 27
- 0.222032 3 2 ack 40 ------- 2 3.0 0.0 12 27
r 0.222864 2 3 tcp 1040 ------- 2 0.0 3.0 13 20
+ 0.222864 3 2 ack 40 ------- 2 3.0 0.0 13 28
- 0.222864 3 2 ack 40 ------- 2 3.0 0.0 13 28
r 0.223696 2 3 tcp 1040 ------- 2 0.0 3.0 14 21
+ 0.223696 3 2 ack 40 ------- 2 3.0 0.0 14 29
- 0.223696 3 2 ack 40 ------- 2 3.0 0.0 14 29
r 0.227904 3 2 ack 40 ------- 2 3.0 0.0 7 22
+ 0.227904 2 1 ack 40 ------- 2 3.0 0.0 7 22
- 0.227904 2 1 ack 40 ------- 2 3.0 0.0 7 22
r 0.228736 3 2 ack 40 ------- 2 3.0 0.0 8 23
+ 0.228736 2 1 ack 40 ------- 2 3.0 0.0 8 23
- 0.228736 2 1 ack 40 ------- 2 3.0 0.0 8 23
r 0.229568 3 2 ack 40 ------- 2 3.0 0.0 9 24
+ 0.229568 2 1 ack 40 ------- 2 3.0 0.0 9 24
- 0.229568 2 1 ack 40 ------- 2 3.0 0.0 9 24
r 0.2304 3 2 ack 40 ------- 2 3.0 0.0 10 25
+ 0.2304 2 1 ack 40 ------- 2 3.0 0.0 10 25
- 0.2304 2 1 ack 40 ------- 2 3.0 0.0 10 25
r 0.231232 3 2 ack 40 ------- 2 3.0 0.0 11 26
+ 0.231232 2 1 ack 40 ------- 2 3.0 0.0 11 26
- 0.231232 2 1 ack 40 ------- 2 3.0 0.0 11 26
r 0.232064 3 2 ack 40 ------- 2 3.0 0.0 12 27
+ 0.232064 2 1 ack 40 ------- 2 3.0 0.0 12 27
- 0.232064 2 1 ack 40 ------- 2 3.0 0.0 12 27
r 0.232896 3 2 ack 40 ------- 2 3.0 0.0 13 28
+ 0.232896 2 1 ack 40 ------- 2 3.0 0.0 13 28
- 0.232896 2 1 ack 40 ------- 2 3.0 0.0 13 28
r 0.233728 3 2 ack 40 ------- 2 3.0 0.0 14 29
+ 0.233728 2 1 ack 40 ------- 2 3.0 0.0 14 29
- 0.233728 2 1 ack 40 ------- 2 3.0 0.0 14 29
r 0.237936 2 1 ack 40 ------- 2 3.0 0.0 7 22
+ 0.237936 1 0 ack 40 ------- 2 3.0 0.0 7 22
- 0.237936 1 0 ack 40 ------- 2 3.0 0.0 7 22
r 0.238768 2 1 ack 40 ------- 2 3.0 0.0 8 23
+ 0.238768 1 0 ack 40 ------- 2 3.0 0.0 8 23
- 0.238768 1 0 ack 40 ------- 2 3.0 0.0 8 23
r 0.2396 2 1 ack 40 ------- 2 3.0 0.0 9 24
+ 0.2396 1 0 ack 40 ------- 2 3.0 0.0 9 24
- 0.2396 1 0 ack 40 ------- 2 3.0 0.0 9 24
r 0.240432 2 1 ack 40 ------- 2 3.0 0.0 10 25
+ 0.240432 1 0 ack 40 ------- 2 3.0 0.0 10 25
- 0.240432 1 0 ack 40 ------- 2 3.0 0.0 10 25
r 0.241264 2 1 ack 40 ------- 2 3.0 0.0 11 26
+ 0.241264 1 0 ack 40 ------- 2 3.0 0.0 11 26
- 0.241264 1 0 ack 40 ------- 2 3.0 0.0 11 26
r 0.242096 2 1 ack 40 ------- 2 3.0 0.0 12 27
+ 0.242096 1 0 ack 40 ------- 2 3.0 0.0 12 27
- 0.242096 1 0 ack 40 ------- 2 3.0 0.0 12 27
r 0.242928 2 1 ack 40 ------- 2 3.0 0.0 13 28
+ 0.242928 1 0 ack 40 ------- 2 3.0 0.0 13 28
- 0.242928 1 0 ack 40 ------- 2 3.0 0.0 13 28
r 0.24376 2 1 ack 40 ------- 2 3.0 0.0 14 29
+ 0.24376 1 0 ack 40 ------- 2 3.0 0.0 14 29
- 0.24376 1 0 ack 40 ------- 2 3.0 0.0 14 29
r 0.247968 1 0 ack 40 ------- 2 3.0 0.0 7 22
+ 0.247968 0 1 tcp 1040 ------- 2 0.0 3.0 15 30
- 0.247968 0 1 tcp 1040 ------- 2 0.0 3.0 15 30
+ 0.247968 0 1 tcp 1040 ------- 2 0.0 3.0 16 31
r 0.2488 1 0 ack 40 ------- 2 3.0 0.0 8 23
+ 0.2488 0 1 tcp 1040 ------- 2 0.0 3.0 17 32
+ 0.2488 0 1 tcp 1040 ------- 2 0.0 3.0 18 33
- 0.2488 0 1 tcp 1040 ------- 2 0.0 3.0 16 31
r 0.249632 1 0 ack 40 ------- 2 3.0 0.0 9 24
+ 0.249632 0 1 tcp 1040 ------- 2 0.0 3.0 19 34
+ 0.249632 0 1 tcp 1040 ------- 2 0.0 3.0 20 35
- 0.249632 0 1 tcp 1040 ------- 2 0.0 3.0 17 32
r 0.250464 1 0 ack 40 ------- 2 3.0 0.0 10 25
+ 0.250464 0 1 tcp 1040 ------- 2 0.0 3.0 21 36
+ 0.250464 0 1 tcp 1040 ------- 2 0.0 3.0 22 37
- 0.250464 0 1 tcp 1040 ------- 2 0.0 3.0 18 33
r 0.251296 1 0 ack 40 ------- 2 3.0 0.0 11 26
+ 0.251296 0 1 tcp 1040 ------- 2 0.0 3.0 23 38
+ 0.251296 0 1 tcp 1040 ------- 2 0.0 3.0 24 39
- 0.251296 0 1 tcp 1040 ------- 2 0.0 3.0 19 34
r 0.252128 1 0 ack 40 ------- 2 3.0 0.0 12 27
+ 0.252128 0 1 tcp 1040 ------- 2 0.0 3.0 25 40
+ 0.252128 0 1 tcp 1040 ------- 2 0.0 3.0 26 41
- 0.252128 0 1 tcp 1040 ------- 2 0.0 3.0 20 35
r 0.25296 1 0 ack 40 ------- 2 3.0 0.0 13 28
+ 0.25296 0 1 tcp 1040 ------- 2 0.0 3.0 27 42
+ 0.25296 0 1 tcp 1040 ------- 2 0.0 3.0 28 43
- 0.25296 0 1 tcp 1040 ------- 2 0.0 3.0 21 36
r 0.253792 1 0 ack 40 ------- 2 3.0 0.0 14 29
+ 0.253792 0 1 tcp 1040 ------- 2 0.0 3.0 29 44
+ 0.253792 0 1 tcp 1040 ------- 2 0.0 3.0 30 45
- 0.253792 0 1 tcp 1040 ------- 2 0.0 3.0 22 37
- 0.254624 0 1 tcp 1040 ------- 2 0.0 3.0 23 38
- 0.255456 0 1 tcp 1040 ------- 2 0.0 3.0 24 39
- 0.256288 0 1 tcp 1040 ------- 2 0.0 3.0 25 40
- 0.25712 0 1 tcp 1040 ------- 2 0.0 3.0 26 41
- 0.257952 0 1 tcp 1040 ------- 2 0.0 3.0 27 42
- 0.258784 0 1 tcp 1040 ------- 2 0.0 3.0 28 43
r 0.2588 0 1 tcp 1040 ------- 2 0.0 3.0 15 30
+ 0.2588 1 2 tcp 1040 ------- 2 0.0 3.0 15 30
- 0.2588 1 2 tcp 1040 ------- 2 0.0 3.0 15 30
- 0.259616 0 1 tcp 1040 ------- 2 0.0 3.0 29 44
r 0.259632 0 1 tcp 1040 ------- 2 0.0 3.0 16 31
+ 0.259632 1 2 tcp 1040 ------- 2 0.0 3.0 16 31
- 0.259632 1 2 tcp 1040 ------- 2 0.0 3.0 16 31
- 0.260448 0 1 tcp 1040 ------- 2 0.0 3.0 30 45
r 0.260464 0 1 tcp 1040 ------- 2 0.0 3.0 17 32
+ 0.260464 1 2 tcp 1040 ------- 2 0.0 3.0 17 32
- 0.260464 1 2 tcp 1040 ------- 2 0.0 3.0 17 32
r 0.261296 0 1 tcp 1040 ------- 2 0.0 3.0 18 33
+ 0.261296 1 2 tcp 1040 ------- 2 0.0 3.0 18 33
- 0.261296 1 2 tcp 1040 ------- 2 0.0 3.0 18 33
r 0.262128 0 1 tcp 1040 ------- 2 0.0 3.0 19 34
+ 0.262128 1 2 tcp 1040 ------- 2 0.0 3.0 19 34
- 0.262128 1 2 tcp 1040 ------- 2 0.0 3.0 19 34
r 0.26296 0 1 tcp 1040 ------- 2 0.0 3.0 20 35
+ 0.26296 1 2 tcp 1040 ------- 2 0.0 3.0 20 35
- 0.26296 1 2 tcp 1040 ------- 2 0.0 3.0 20 35
r 0.263792 0 1 tcp 1040 ------- 2 0.0 3.0 21 36
+ 0.263792 1 2 tcp 1040 ------- 2 0.0 3.0 21 36
- 0.263792 1 2 tcp 1040 ------- 2 0.0 3.0 21 36
r 0.264624 0 1 tcp 1040 ------- 2 0.0 3.0 22 37
+ 0.264624 1 2 tcp 1040 ------- 2 0.0 3.0 22 37
- 0.264624 1 2 tcp 1040 ------- 2 0.0 3.0 22 37
r 0.265456 0 1 tcp 1040 ------- 2 0.0 3.0 23 38
+ 0.265456 1 2 tcp 1040 ------- 2 0.0 3.0 23 38
- 0.265456 1 2 tcp 1040 ------- 2 0.0 3.0 23 38
r 0.266288 0 1 tcp 1040 ------- 2 0.0 3.0 24 39
+ 0.266288 1 2 tcp 1040 ------- 2 0.0 3.0 24 39
- 0.266288 1 2 tcp 1040 ------- 2 0.0 3.0 24 39
r 0.26712 0 1 tcp 1040 ------- 2 0.0 3.0 25 40
+ 0.26712 1 2 tcp 1040 ------- 2 0.0 3.0 25 40
- 0.26712 1 2 tcp 1040 ------- 2 0.0 3.0 25 40
r 0.267952 0 1 tcp 1040 ------- 2 0.0 3.0 26 41
+ 0.267952 1 2 tcp 1040 ------- 2 0.0 3.0 26 41
- 0.267952 1 2 tcp 1040 ------- 2 0.0 3.0 26 41
r 0.268784 0 1 tcp 1040 ------- 2 0.0 3.0 27 42
+ 0.268784 1 2 tcp 1040 ------- 2 0.0 3.0 27 42
- 0.268784 1 2 tcp 1040 ------- 2 0.0 3.0 27 42
r 0.269616 0 1 tcp 1040 ------- 2 0.0 3.0 28 43
+ 0.269616 1 2 tcp 1040 ------- 2 0.0 3.0 28 43
- 0.269616 1 2 tcp 1040 ------- 2 0.0 3.0 28 43
r 0.269632 1 2 tcp 1040 ------- 2 0.0 3.0 15 30
+ 0.269632 2 3 tcp 1040 ------- 2 0.0 3.0 15 30
- 0.269632 2 3 tcp 1040 ------- 2 0.0 3.0 15 30
r 0.270448 0 1 tcp 1040 ------- 2 0.0 3.0 29 44
+ 0.270448 1 2 tcp 1040 ------- 2 0.0 3.0 29 44
- 0.270448 1 2 tcp 1040 ------- 2 0.0 3.0 29 44
r 0.270464 1 2 tcp 1040 ------- 2 0.0 3.0 16 31
+ 0.270464 2 3 tcp 1040 ------- 2 0.0 3.0 16 31
- 0.270464 2 3 tcp 1040 ------- 2 0.0 3.0 16 31
r 0.27128 0 1 tcp 1040 ------- 2 0.0 3.0 30 45
+ 0.27128 1 2 tcp 1040 ------- 2 0.0 3.0 30 45
- 0.27128 1 2 tcp 1040 ------- 2 0.0 3.0 30 45
r 0.271296 1 2 tcp 1040 ------- 2 0.0 3.0 17 32
+ 0.271296 2 3 tcp 1040 ------- 2 0.0 3.0 17 32
- 0.271296 2 3 tcp 1040 ------- 2 0.0 3.0 17 32
r 0.272128 1 2 tcp 1040 ------- 2 0.0 3.0 18 33
+ 0.272128 2 3 tcp 1040 ------- 2 0.0 3.0 18 33
- 0.272128 2 3 tcp 1040 ------- 2 0.0 3.0 18 33
r 0.27296 1 2 tcp 1040 ------- 2 0.0 3.0 19 34
+ 0.27296 2 3 tcp 1040 ------- 2 0.0 3.0 19 34
- 0.27296 2 3 tcp 1040 ------- 2 0.0 3.0 19 34
r 0.273792 1 2 tcp 1040 ------- 2 0.0 3.0 20 35
+ 0.273792 2 3 tcp 1040 ------- 2 0.0 3.0 20 35
- 0.273792 2 3 tcp 1040 ------- 2 0.0 3.0 20 35
r 0.274624 1 2 tcp 1040 ------- 2 0.0 3.0 21 36
+ 0.274624 2 3 tcp 1040 ------- 2 0.0 3.0 21 36
- 0.274624 2 3 tcp 1040 ------- 2 0.0 3.0 21 36
r 0.275456 1 2 tcp 1040 ------- 2 0.0 3.0 22 37
+ 0.275456 2 3 tcp 1040 ------- 2 0.0 3.0 22 37
- 0.275456 2 3 tcp 1040 ------- 2 0.0 3.0 22 37
r 0.276288 1 2 tcp 1040 ------- 2 0.0 3.0 23 38
+ 0.276288 2 3 tcp 1040 ------- 2 0.0 3.0 23 38
- 0.276288 2 3 tcp 1040 ------- 2 0.0 3.0 23 38
r 0.27712 1 2 tcp 1040 ------- 2 0.0 3.0 24 39
+ 0.27712 2 3 tcp 1040 ------- 2 0.0 3.0 24 39
- 0.27712 2 3 tcp 1040 ------- 2 0.0 3.0 24 39
r 0.277952 1 2 tcp 1040 ------- 2 0.0 3.0 25 40
+ 0.277952 2 3 tcp 1040 ------- 2 0.0 3.0 25 40
- 0.277952 2 3 tcp 1040 ------- 2 0.0 3.0 25 40
r 0.278784 1 2 tcp 1040 ------- 2 0.0 3.0 26 41
+ 0.278784 2 3 tcp 1040 ------- 2 0.0 3.0 26 41
- 0.278784 2 3 tcp 1040 ------- 2 0.0 3.0 26 41
r 0.279616 1 2 tcp 1040 ------- 2 0.0 3.0 27 42
+ 0.279616 2 3 tcp 1040 ------- 2 0.0 3.0 27 42
- 0.279616 2 3 tcp 1040 ------- 2 0.0 3.0 27 42
r 0.280448 1 2 tcp 1040 ------- 2 0.0 3.0 28 43
+ 0.280448 2 3 tcp 1040 ------- 2 0.0 3.0 28 43
- 0.280448 2 3 tcp 1040 ------- 2 0.0 3.0 28 43
r 0.280464 2 3 tcp 1040 ------- 2 0.0 3.0 15 30
+ 0.280464 3 2 ack 40 ------- 2 3.0 0.0 15 46
- 0.280464 3 2 ack 40 ------- 2 3.0 0.0 15 46
r 0.28128 1 2 tcp 1040 ------- 2 0.0 3.0 29 44
+ 0.28128 2 3 tcp 1040 ------- 2 0.0 3.0 29 44
- 0.28128 2 3 tcp 1040 ------- 2 0.0 3.0 29 44
r 0.281296 2 3 tcp 1040 ------- 2 0.0 3.0 16 31
+ 0.281296 3 2 ack 40 ------- 2 3.0 0.0 16 47
- 0.281296 3 2 ack 40 ------- 2 3.0 0.0 16 47
r 0.282112 1 2 tcp 1040 ------- 2 0.0 3.0 30 45
+ 0.282112 2 3 tcp 1040 ------- 2 0.0 3.0 30 45
- 0.282112 2 3 tcp 1040 ------- 2 0.0 3.0 30 45
r 0.282128 2 3 tcp 1040 ------- 2 0.0 3.0 17 32
+ 0.282128 3 2 ack 40 ------- 2 3.0 0.0 17 48
- 0.282128 3 2 ack 40 ------- 2 3.0 0.0 17 48
r 0.28296 2 3 tcp 1040 ------- 2 0.0 3.0 18 33
+ 0.28296 3 2 ack 40 ------- 2 3.0 0.0 18 49
- 0.28296 3 2 ack 40 ------- 2 3.0 0.0 18 49
r 0.283792 2 3 tcp 1040 ------- 2 0.0 3.0 19 34
+ 0.283792 3 2 ack 40 ------- 2 3.0 0.0 19 50
- 0.283792 3 2 ack 40 ------- 2 3.0 0.0 19 50
r 0.284624 2 3 tcp 1040 ------- 2 0.0 3.0 20 35
+ 0.284624 3 2 ack 40 ------- 2 3.0 0.0 20 51
- 0.284624 3 2 ack 40 ------- 2 3.0 0.0 20 51
r 0.285456 2 3 tcp 1040 ------- 2 0.0 3.0 21 36
+ 0.285456 3 2 ack 40 ------- 2 3.0 0.0 21 52
- 0.285456 3 2 ack 40 ------- 2 3.0 0.0 21 52
r 0.286288 2 3 tcp 1040 ------- 2 0.0 3.0 22 37
+ 0.286288 3 2 ack 40 ------- 2 3.0 0.0 22 53
- 0.286288 3 2 ack 40 ------- 2 3.0 0.0 22 53
r 0.28712 2 3 tcp 1040 ------- 2 0.0 3.0 23 38
+ 0.28712 3 2 ack 40 ------- 2 3.0 0.0 23 54
- 0.28712 3 2 ack 40 ------- 2 3.0 0.0 23 54
r 0.287952 2 3 tcp 1040 ------- 2 0.0 3.0 24 39
+ 0.287952 3 2 ack 40 ------- 2 3.0 0.0 24 55
- 0.287952 3 2 ack 40 ------- 2 3.0 0.0 24 55
r 0.288784 2 3 tcp 1040 ------- 2 0.0 3.0 25 40
+ 0.288784 3 2 ack 40 ------- 2 3.0 0.0 25 56
- 0.288784 3 2 ack 40 ------- 2 3.0 0.0 25 56
r 0.289616 2 3 tcp 1040 ------- 2 0.0 3.0 26 41
+ 0.289616 3 2 ack 40 ------- 2 3.0 0.0 26 57
- 0.289616 3 2 ack 40 ------- 2 3.0 0.0 26 57
r 0.290448 2 3 tcp 1040 ------- 2 0.0 3.0 27 42
+ 0.290448 3 2 ack 40 ------- 2 3.0 0.0 27 58
- 0.290448 3 2 ack 40 ------- 2 3.0 0.0 27 58
r 0.290496 3 2 ack 40 ------- 2 3.0 0.0 15 46
+ 0.290496 2 1 ack 40 ------- 2 3.0 0.0 15 46
- 0.290496 2 1 ack 40 ------- 2 3.0 0.0 15 46
r 0.29128 2 3 tcp 1040 ------- 2 0.0 3.0 28 43
+ 0.29128 3 2 ack 40 ------- 2 3.0 0.0 28 59
- 0.29128 3 2 ack 40 ------- 2 3.0 0.0 28 59
r 0.291328 3 2 ack 40 ------- 2 3.0 0.0 16 47
+ 0.291328 2 1 ack 40 ------- 2 3.0 0.0 16 47
- 0.291328 2 1 ack 40 ------- 2 3.0 0.0 16 47
r 0.292112 2 3 tcp 1040 ------- 2 0.0 3.0 29 44
+ 0.292112 3 2 ack 40 ------- 2 3.0 0.0 29 60
- 0.292112 3 2 ack 40 ------- 2 3.0 0.0 29 60
r 0.29216 3 2 ack 40 ------- 2 3.0 0.0 17 48
+ 0.29216 2 1 ack 40 ------- 2 3.0 0.0 17 48
- 0.29216 2 1 ack 40 ------- 2 3.0 0.0 17 48
r 0.292944 2 3 tcp 1040 ------- 2 0.0 3.0 30 45
+ 0.292944 3 2 ack 40 ------- 2 3.0 0.0 30 61
- 0.292944 3 2 ack 40 ------- 2 3.0 0.0 30 61
r 0.292992 3 2 ack 40 ------- 2 3.0 0.0 18 49
+ 0.292992 2 1 ack 40 ------- 2 3.0 0.0 18 49
- 0.292992 2 1 ack 40 ------- 2 3.0 0.0 18 49
r 0.293824 3 2 ack 40 ------- 2 3.0 0.0 19 50
+ 0.293824 2 1 ack 40 ------- 2 3.0 0.0 19 50
- 0.293824 2 1 ack 40 ------- 2 3.0 0.0 19 50
r 0.294656 3 2 ack 40 ------- 2 3.0 0.0 20 51
+ 0.294656 2 1 ack 40 ------- 2 3.0 0.0 20 51
- 0.294656 2 1 ack 40 ------- 2 3.0 0.0 20 51
r 0.295488 3 2 ack 40 ------- 2 3.0 0.0 21 52
+ 0.295488 2 1 ack 40 ------- 2 3.0 0.0 21 52
- 0.295488 2 1 ack 40 ------- 2 3.0 0.0 21 52
r 0.29632 3 2 ack 40 ------- 2 3.0 0.0 22 53
+ 0.29632 2 1 ack 40 ------- 2 3.0 0.0 22 53
- 0.29632 2 1 ack 40 ------- 2 3.0 0.0 22 53
r 0.297152 3 2 ack 40 ------- 2 3.0 0.0 23 54
+ 0.297152 2 1 ack 40 ------- 2 3.0 0.0 23 54
- 0.297152 2 1 ack 40 ------- 2 3.0 0.0 23 54
r 0.297984 3 2 ack 40 ------- 2 3.0 0.0 24 55
+ 0.297984 2 1 ack 40 ------- 2 3.0 0.0 24 55
- 0.297984 2 1 ack 40 ------- 2 3.0 0.0 24 55
r 0.298816 3 2 ack 40 ------- 2 3.0 0.0 25 56
+ 0.298816 2 1 ack 40 ------- 2 3.0 0.0 25 56
- 0.298816 2 1 ack 40 ------- 2 3.0 0.0 25 56
r 0.299648 3 2 ack 40 ------- 2 3.0 0.0 26 57
+ 0.299648 2 1 ack 40 ------- 2 3.0 0.0 26 57
- 0.299648 2 1 ack 40 ------- 2 3.0 0.0 26 57
r 0.30048 3 2 ack 40 ------- 2 3.0 0.0 27 58
+ 0.30048 2 1 ack 40 ------- 2 3.0 0.0 27 58
- 0.30048 2 1 ack 40 ------- 2 3.0 0.0 27 58
r 0.300528 2 1 ack 40 ------- 2 3.0 0.0 15 46
+ 0.300528 1 0 ack 40 ------- 2 3.0 0.0 15 46
- 0.300528 1 0 ack 40 ------- 2 3.0 0.0 15 46
r 0.301312 3 2 ack 40 ------- 2 3.0 0.0 28 59
+ 0.301312 2 1 ack 40 ------- 2 3.0 0.0 28 59
- 0.301312 2 1 ack 40 ------- 2 3.0 0.0 28 59
r 0.30136 2 1 ack 40 ------- 2 3.0 0.0 16 47
+ 0.30136 1 0 ack 40 ------- 2 3.0 0.0 16 47
- 0.30136 1 0 ack 40 ------- 2 3.0 0.0 16 47
r 0.302144 3 2 ack 40 ------- 2 3.0 0.0 29 60
+ 0.302144 2 1 ack 40 ------- 2 3.0 0.0 29 60
- 0.302144 2 1 ack 40 ------- 2 3.0 0.0 29 60
r 0.302192 2 1 ack 40 ------- 2 3.0 0.0 17 48
+ 0.302192 1 0 ack 40 ------- 2 3.0 0.0 17 48
- 0.302192 1 0 ack 40 ------- 2 3.0 0.0 17 48
r 0.302976 3 2 ack 40 ------- 2 3.0 0.0 30 61
+ 0.302976 2 1 ack 40 ------- 2 3.0 0.0 30 61
- 0.302976 2 1 ack 40 ------- 2 3.0 0.0 30 61
r 0.303024 2 1 ack 40 ------- 2 3.0 0.0 18 49
+ 0.303024 1 0 ack 40 ------- 2 3.0 0.0 18 49
- 0.303024 1 0 ack 40 ------- 2 3.0 0.0 18 49
r 0.303856 2 1 ack 40 ------- 2 3.0 0.0 19 50
+ 0.303856 1 0 ack 40 ------- 2 3.0 0.0 19 50
- 0.303856 1 0 ack 40 ------- 2 3.0 0.0 19 50
r 0.304688 2 1 ack 40 ------- 2 3.0 0.0 20 51
+ 0.304688 1 0 ack 40 ------- 2 3.0 0.0 20 51
- 0.304688 1 0 ack 40 ------- 2 3.0 0.0 20 51
r 0.30552 2 1 ack 40 ------- 2 3.0 0.0 21 52
+ 0.30552 1 0 ack 40 ------- 2 3.0 0.0 21 52
- 0.30552 1 0 ack 40 ------- 2 3.0 0.0 21 52
r 0.306352 2 1 ack 40 ------- 2 3.0 0.0 22 53
+ 0.306352 1 0 ack 40 ------- 2 3.0 0.0 22 53
- 0.306352 1 0 ack 40 ------- 2 3.0 0.0 22 53
r 0.307184 2 1 ack 40 ------- 2 3.0 0.0 23 54
+ 0.307184 1 0 ack 40 ------- 2 3.0 0.0 23 54
- 0.307184 1 0 ack 40 ------- 2 3.0 0.0 23 54
r 0.308016 2 1 ack 40 ------- 2 3.0 0.0 24 55
+ 0.308016 1 0 ack 40 ------- 2 3.0 0.0 24 55
- 0.308016 1 0 ack 40 ------- 2 3.0 0.0 24 55
r 0.308848 2 1 ack 40 ------- 2 3.0 0.0 25 56
+ 0.308848 1 0 ack 40 ------- 2 3.0 0.0 25 56
- 0.308848 1 0 ack 40 ------- 2 3.0 0.0 25 56
r 0.30968 2 1 ack 40 ------- 2 3.0 0.0 26 57
+ 0.30968 1 0 ack 40 ------- 2 3.0 0.0 26 57
- 0.30968 1 0 ack 40 ------- 2 3.0 0.0 26 57
r 0.310512 2 1 ack 40 ------- 2 3.0 0.0 27 58
+ 0.310512 1 0 ack 40 ------- 2 3.0 0.0 27 58
- 0.310512 1 0 ack 40 ------- 2 3.0 0.0 27 58
r 0.31056 1 0 ack 40 ------- 2 3.0 0.0 15 46
+ 0.31056 0 1 tcp 1040 ------- 2 0.0 3.0 31 62
- 0.31056 0 1 tcp 1040 ------- 2 0.0 3.0 31 62
+ 0.31056 0 1 tcp 1040 ------- 2 0.0 3.0 32 63
r 0.311344 2 1 ack 40 ------- 2 3.0 0.0 28 59
+ 0.311344 1 0 ack 40 ------- 2 3.0 0.0 28 59
- 0.311344 1 0 ack 40 ------- 2 3.0 0.0 28 59
r 0.311392 1 0 ack 40 ------- 2 3.0 0.0 16 47
+ 0.311392 0 1 tcp 1040 ------- 2 0.0 3.0 33 64
+ 0.311392 0 1 tcp 1040 ------- 2 0.0 3.0 34 65
- 0.311392 0 1 tcp 1040 ------- 2 0.0 3.0 32 63
r 0.312176 2 1 ack 40 ------- 2 3.0 0.0 29 60
+ 0.312176 1 0 ack 40 ------- 2 3.0 0.0 29 60
- 0.312176 1 0 ack 40 ------- 2 3.0 0.0 29 60
r 0.312224 1 0 ack 40 ------- 2 3.0 0.0 17 48
+ 0.312224 0 1 tcp 1040 ------- 2 0.0 3.0 35 66
+ 0.312224 0 1 tcp 1040 ------- 2 0.0 3.0 36 67
- 0.312224 0 1 tcp 1040 ------- 2 0.0 3.0 33 64
r 0.313008 2 1 ack 40 ------- 2 3.0 0.0 30 61
+ 0.313008 1 0 ack 40 ------- 2 3.0 0.0 30 61
- 0.313008 1 0 ack 40 ------- 2 3.0 0.0 30 61
- 0.313056 0 1 tcp 1040 ------- 2 0.0 3.0 34 65
r 0.313056 1 0 ack 40 ------- 2 3.0 0.0 18 49
+ 0.313056 0 1 tcp 1040 ------- 2 0.0 3.0 37 68
+ 0.313056 0 1 tcp 1040 ------- 2 0.0 3.0 38 69
- 0.313888 0 1 tcp 1040 ------- 2 0.0 3.0 35 66
r 0.313888 1 0 ack 40 ------- 2 3.0 0.0 19 50
+ 0.313888 0 1 tcp 1040 ------- 2 0.0 3.0 39 70
- 0.31472 0 1 tcp 1040 ------- 2 0.0 3.0 36 67
r 0.31472 1 0 ack 40 ------- 2 3.0 0.0 20 51
+ 0.31472 0 1 tcp 1040 ------- 2 0.0 3.0 40 71
- 0.315552 0 1 tcp 1040 ------- 2 0.0 3.0 37 68
r 0.315552 1 0 ack 40 ------- 2 3.0 0.0 21 52
+ 0.315552 0 1 tcp 1040 ------- 2 0.0 3.0 41 72
- 0.316384 0 1 tcp 1040 ------- 2 0.0 3.0 38 69
r 0.316384 1 0 ack 40 ------- 2 3.0 0.0 22 53
+ 0.316384 0 1 tcp 1040 ------- 2 0.0 3.0 42 73
- 0.317216 0 1 tcp 1040 ------- 2 0.0 3.0 39 70
r 0.317216 1 0 ack 40 ------- 2 3.0 0.0 23 54
+ 0.317216 0 1 tcp 1040 ------- 2 0.0 3.0 43 74
- 0.318048 0 1 tcp 1040 ------- 2 0.0 3.0 40 71
r 0.318048 1 0 ack 40 ------- 2 3.0 0.0 24 55
+ 0.318048 0 1 tcp 1040 ------- 2 0.0 3.0 44 75
- 0.31888 0 1 tcp 1040 ------- 2 0.0 3.0 41 72
r 0.31888 1 0 ack 40 ------- 2 3.0 0.0 25 56
+ 0.31888 0 1 tcp 1040 ------- 2 0.0 3.0 45 76
- 0.319712 0 1 tcp 1040 ------- 2 0.0 3.0 42 73
r 0.319712 1 0 ack 40 ------- 2 3.0 0.0 26 57
+ 0.319712 0 1 tcp 1040 ------- 2 0.0 3.0 46 77
- 0.320544 0 1 tcp 1040 ------- 2 0.0 3.0 43 74
r 0.320544 1 0 ack 40 ------- 2 3.0 0.0 27 58
+ 0.320544 0 1 tcp 1040 ------- 2 0.0 3.0 47 78
- 0.321376 0 1 tcp 1040 ------- 2 0.0 3.0 44 75
r 0.321376 1 0 ack 40 ------- 2 3.0 0.0 28 59
+ 0.321376 0 1 tcp 1040 ------- 2 0.0 3.0 48 79
r 0.321392 0 1 tcp 1040 ------- 2 0.0 3.0 31 62
+ 0.321392 1 2 tcp 1040 ------- 2 0.0 3.0 31 62
- 0.321392 1 2 tcp 1040 ------- 2 0.0 3.0 31 62
- 0.322208 0 1 tcp 1040 ------- 2 0.0 3.0 45 76
r 0.322208 1 0 ack 40 ------- 2 3.0 0.0 29 60
+ 0.322208 0 1 tcp 1040 ------- 2 0.0 3.0 49 80
r 0.322224 0 1 tcp 1040 ------- 2 0.0 3.0 32 63
+ 0.322224 1 2 tcp 1040 ------- 2 0.0 3.0 32 63
- 0.322224 1 2 tcp 1040 ------- 2 0.0 3.0 32 63
- 0.32304 0 1 tcp 1040 ------- 2 0.0 3.0 46 77
r 0.32304 1 0 ack 40 ------- 2 3.0 0.0 30 61
+ 0.32304 0 1 tcp 1040 ------- 2 0.0 3.0 50 81
r 0.323056 0 1 tcp 1040 ------- 2 0.0 3.0 33 64
+ 0.323056 1 2 tcp 1040 ------- 2 0.0 3.0 33 64
- 0.323056 1 2 tcp 1040 ------- 2 0.0 3.0 33 64
- 0.323872 0 1 tcp 1040 ------- 2 0.0 3.0 47 78
r 0.323888 0 1 tcp 1040 ------- 2 0.0 3.0 34 65
+ 0.323888 1 2 tcp 1040 ------- 2 0.0 3.0 34 65
- 0.323888 1 2 tcp 1040 ------- 2 0.0 3.0 34 65
- 0.324704 0 1 tcp 1040 ------- 2 0.0 3.0 48 79
r 0.32472 0 1 tcp 1040 ------- 2 0.0 3.0 35 66
+ 0.32472 1 2 tcp 1040 ------- 2 0.0 3.0 35 66
- 0.32472 1 2 tcp 1040 ------- 2 0.0 3.0 35 66
- 0.325536 0 1 tcp 1040 ------- 2 0.0 3.0 49 80
r 0.325552 0 1 tcp 1040 ------- 2 0.0 3.0 36 67
+ 0.325552 1 2 tcp 1040 ------- 2 0.0 3.0 36 67
- 0.325552 1 2 tcp 1040 ------- 2 0.0 3.0 36 67
- 0.326368 0 1 tcp 1040 ------- 2 0.0 3.0 50 81
r 0.326384 0 1 tcp 1040 ------- 2 0.0 3.0 37 68
+ 0.326384 1 2 tcp 1040 ------- 2 0.0 3.0 37 68
- 0.326384 1 2 tcp 1040 ------- 2 0.0 3.0 37 68
r 0.327216 0 1 tcp 1040 ------- 2 0.0 3.0 38 69
+ 0.327216 1 2 tcp 1040 ------- 2 0.0 3.0 38 69
- 0.327216 1 2 tcp 1040 ------- 2 0.0 3.0 38 69
r 0.328048 0 1 tcp 1040 ------- 2 0.0 3.0 39 70
+ 0.328048 1 2 tcp 1040 ------- 2 0.0 3.0 39 70
- 0.328048 1 2 tcp 1040 ------- 2 0.0 3.0 39 70
r 0.32888 0 1 tcp 1040 ------- 2 0.0 3.0 40 71
+ 0.32888 1 2 tcp 1040 ------- 2 0.0 3.0 40 71
- 0.32888 1 2 tcp 1040 ------- 2 0.0 3.0 40 71
r 0.329712 0 1 tcp 1040 ------- 2 0.0 3.0 41 72
+ 0.329712 1 2 tcp 1040 ------- 2 0.0 3.0 41 72
- 0.329712 1 2 tcp 1040 ------- 2 0.0 3.0 41 72
r 0.330544 0 1 tcp 1040 ------- 2 0.0 3.0 42 73
+ 0.330544 1 2 tcp 1040 ------- 2 0.0 3.0 42 73
- 0.330544 1 2 tcp 1040 ------- 2 0.0 3.0 42 73
r 0.331376 0 1 tcp 1040 ------- 2 0.0 3.0 43 74
+ 0.331376 1 2 tcp 1040 ------- 2 0.0 3.0 43 74
- 0.331376 1 2 tcp 1040 ------- 2 0.0 3.0 43 74
r 0.332208 0 1 tcp 1040 ------- 2 0.0 3.0 44 75
+ 0.332208 1 2 tcp 1040 ------- 2 0.0 3.0 44 75
- 0.332208 1 2 tcp 1040 ------- 2 0.0 3.0 44 75
r 0.332224 1 2 tcp 1040 ------- 2 0.0 3.0 31 62
+ 0.332224 2 3 tcp 1040 ------- 2 0.0 3.0 31 62
- 0.332224 2 3 tcp 1040 ------- 2 0.0 3.0 31 62
r 0.33304 0 1 tcp 1040 ------- 2 0.0 3.0 45 76
+ 0.33304 1 2 tcp 1040 ------- 2 0.0 3.0 45 76
- 0.33304 1 2 tcp 1040 ------- 2 0.0 3.0 45 76