+ 0 1 2 cbr 210 ------- 0 1.0 2.0 0 0
- 0 1 2 cbr 210 ------- 0 1.0 2.0 0 0
+ 0 0 1 tcp 40 ------- 0 0.0 3.0 0 1
- 0 0 1 tcp 40 ------- 0 0.0 3.0 0 1
+ 0.00168 1 2 cbr 210 ------- 0 1.0 2.0 1 2
- 0.00168 1 2 cbr 210 ------- 0 1.0 2.0 1 2
+ 0.00336 1 2 cbr 210 ------- 0 1.0 2.0 2 3
- 0.00336 1 2 cbr 210 ------- 0 1.0 2.0 2 3
+ 0.00504 1 2 cbr 210 ------- 0 1.0 2.0 3 4
- 0.00504 1 2 cbr 210 ------- 0 1.0 2.0 3 4
+ 0.00672 1 2 cbr 210 ------- 0 1.0 2.0 4 5
- 0.00672 1 2 cbr 210 ------- 0 1.0 2.0 4 5
+ 0.0084 1 2 cbr 210 ------- 0 1.0 2.0 5 6
- 0.0084 1 2 cbr 210 ------- 0 1.0 2.0 5 6
r 0.010032 0 1 tcp 40 ------- 0 0.0 3.0 0 1
+ 0.010032 1 2 tcp 40 ------- 0 0.0 3.0 0 1
- 0.010032 1 2 tcp 40 ------- 0 0.0 3.0 0 1
+ 0.01008 1 2 cbr 210 ------- 0 1.0 2.0 6 7
- 0.01008 1 2 cbr 210 ------- 0 1.0 2.0 6 7
r 0.010168 1 2 cbr 210 ------- 0 1.0 2.0 0 0
+ 0.01176 1 2 cbr 210 ------- 0 1.0 2.0 7 8
- 0.01176 1 2 cbr 210 ------- 0 1.0 2.0 7 8
r 0.011848 1 2 cbr 210 ------- 0 1.0 2.0 1 2
+ 0.01344 1 2 cbr 210 ------- 0 1.0 2.0 8 9
- 0.01344 1 2 cbr 210 ------- 0 1.0 2.0 8 9
r 0.013528 1 2 cbr 210 ------- 0 1.0 2.0 2 3
+ 0.01512 1 2 cbr 210 ------- 0 1.0 2.0 9 10
- 0.01512 1 2 cbr 210 ------- 0 1.0 2.0 9 10
r 0.015208 1 2 cbr 210 ------- 0 1.0 2.0 3 4
+ 0.0168 1 2 cbr 210 ------- 0 1.0 2.0 10 11
- 0.0168 1 2 cbr 210 ------- 0 1.0 2.0 10 11
r 0.016888 1 2 cbr 210 ------- 0 1.0 2.0 4 5
+ 0.01848 1 2 cbr 210 ------- 0 1.0 2.0 11 12
- 0.01848 1 2 cbr 210 ------- 0 1.0 2.0 11 12
r 0.018568 1 2 cbr 210 ------- 0 1.0 2.0 5 6
r 0.020064 1 2 tcp 40 ------- 0 0.0 3.0 0 1
+ 0.020064 2 3 tcp 40 ------- 0 0.0 3.0 0 1
- 0.020064 2 3 tcp 40 ------- 0 0.0 3.0 0 1
+ 0.02016 1 2 cbr 210 ------- 0 1.0 2.0 12 13
- 0.02016 1 2 cbr 210 ------- 0 1.0 2.0 12 13
r 0.020248 1 2 cbr 210 ------- 0 1.0 2.0 6 7
+ 0.02184 1 2 cbr 210 ------- 0 1.0 2.0 13 14
- 0.02184 1 2 cbr 210 ------- 0 1.0 2.0 13 14
r 0.021928 1 2 cbr 210 ------- 0 1.0 2.0 7 8
+ 0.02352 1 2 cbr 210 ------- 0 1.0 2.0 14 15
- 0.02352 1 2 cbr 210 ------- 0 1.0 2.0 14 15
r 0.023608 1 2 cbr 210 ------- 0 1.0 2.0 8 9
+ 0.0252 1 2 cbr 210 ------- 0 1.0 2.0 15 16
- 0.0252 1 2 cbr 210 ------- 0 1.0 2.0 15 16
r 0.025288 1 2 cbr 210 ------- 0 1.0 2.0 9 10
+ 0.02688 1 2 cbr 210 ------- 0 1.0 2.0 16 17
- 0.02688 1 2 cbr 210 ------- 0 1.0 2.0 16 17
r 0.026968 1 2 cbr 210 ------- 0 1.0 2.0 10 11
+ 0.02856 1 2 cbr 210 ------- 0 1.0 2.0 17 18
- 0.02856 1 2 cbr 210 ------- 0 1.0 2.0 17 18
r 0.028648 1 2 cbr 210 ------- 0 1.0 2.0 11 12
r 0.030096 2 3 tcp 40 ------- 0 0.0 3.0 0 1
+ 0.030096 3 2 ack 40 ------- 0 3.0 0.0 0 19
- 0.030096 3 2 ack 40 ------- 0 3.0 0.0 0 19
+ 0.03024 1 2 cbr 210 ------- 0 1.0 2.0 18 20
- 0.03024 1 2 cbr 210 ------- 0 1.0 2.0 18 20
r 0.030328 1 2 cbr 210 ------- 0 1.0 2.0 12 13
+ 0.03192 1 2 cbr 210 ------- 0 1.0 2.0 19 21
- 0.03192 1 2 cbr 210 ------- 0 1.0 2.0 19 21
r 0.032008 1 2 cbr 210 ------- 0 1.0 2.0 13 14
+ 0.0336 1 2 cbr 210 ------- 0 1.0 2.0 20 22
- 0.0336 1 2 cbr 210 ------- 0 1.0 2.0 20 22
r 0.033688 1 2 cbr 210 ------- 0 1.0 2.0 14 15
+ 0.03528 1 2 cbr 210 ------- 0 1.0 2.0 21 23
- 0.03528 1 2 cbr 210 ------- 0 1.0 2.0 21 23
r 0.035368 1 2 cbr 210 ------- 0 1.0 2.0 15 16
+ 0.03696 1 2 cbr 210 ------- 0 1.0 2.0 22 24
- 0.03696 1 2 cbr 210 ------- 0 1.0 2.0 22 24
r 0.037048 1 2 cbr 210 ------- 0 1.0 2.0 16 17
+ 0.03864 1 2 cbr 210 ------- 0 1.0 2.0 23 25
- 0.03864 1 2 cbr 210 ------- 0 1.0 2.0 23 25
r 0.038728 1 2 cbr 210 ------- 0 1.0 2.0 17 18
r 0.040128 3 2 ack 40 ------- 0 3.0 0.0 0 19
+ 0.040128 2 1 ack 40 ------- 0 3.0 0.0 0 19
- 0.040128 2 1 ack 40 ------- 0 3.0 0.0 0 19
+ 0.04032 1 2 cbr 210 ------- 0 1.0 2.0 24 26
- 0.04032 1 2 cbr 210 ------- 0 1.0 2.0 24 26
r 0.040408 1 2 cbr 210 ------- 0 1.0 2.0 18 20
+ 0.042 1 2 cbr 210 ------- 0 1.0 2.0 25 27
- 0.042 1 2 cbr 210 ------- 0 1.0 2.0 25 27
r 0.042088 1 2 cbr 210 ------- 0 1.0 2.0 19 21
+ 0.04368 1 2 cbr 210 ------- 0 1.0 2.0 26 28
- 0.04368 1 2 cbr 210 ------- 0 1.0 2.0 26 28
r 0.043768 1 2 cbr 210 ------- 0 1.0 2.0 20 22
+ 0.04536 1 2 cbr 210 ------- 0 1.0 2.0 27 29
- 0.04536 1 2 cbr 210 ------- 0 1.0 2.0 27 29
r 0.045448 1 2 cbr 210 ------- 0 1.0 2.0 21 23
+ 0.04704 1 2 cbr 210 ------- 0 1.0 2.0 28 30
- 0.04704 1 2 cbr 210 ------- 0 1.0 2.0 28 30
r 0.047128 1 2 cbr 210 ------- 0 1.0 2.0 22 24
+ 0.04872 1 2 cbr 210 ------- 0 1.0 2.0 29 31
- 0.04872 1 2 cbr 210 ------- 0 1.0 2.0 29 31
r 0.048808 1 2 cbr 210 ------- 0 1.0 2.0 23 25
r 0.05016 2 1 ack 40 ------- 0 3.0 0.0 0 19
+ 0.05016 1 0 ack 40 ------- 0 3.0 0.0 0 19
- 0.05016 1 0 ack 40 ------- 0 3.0 0.0 0 19
+ 0.0504 1 2 cbr 210 ------- 0 1.0 2.0 30 32
- 0.0504 1 2 cbr 210 ------- 0 1.0 2.0 30 32
r 0.050488 1 2 cbr 210 ------- 0 1.0 2.0 24 26
+ 0.05208 1 2 cbr 210 ------- 0 1.0 2.0 31 33
- 0.05208 1 2 cbr 210 ------- 0 1.0 2.0 31 33
r 0.052168 1 2 cbr 210 ------- 0 1.0 2.0 25 27
+ 0.05376 1 2 cbr 210 ------- 0 1.0 2.0 32 34
- 0.05376 1 2 cbr 210 ------- 0 1.0 2.0 32 34
r 0.053848 1 2 cbr 210 ------- 0 1.0 2.0 26 28
+ 0.05544 1 2 cbr 210 ------- 0 1.0 2.0 33 35
- 0.05544 1 2 cbr 210 ------- 0 1.0 2.0 33 35
r 0.055528 1 2 cbr 210 ------- 0 1.0 2.0 27 29
+ 0.05712 1 2 cbr 210 ------- 0 1.0 2.0 34 36
- 0.05712 1 2 cbr 210 ------- 0 1.0 2.0 34 36
r 0.057208 1 2 cbr 210 ------- 0 1.0 2.0 28 30
+ 0.0588 1 2 cbr 210 ------- 0 1.0 2.0 35 37
- 0.0588 1 2 cbr 210 ------- 0 1.0 2.0 35 37
r 0.058888 1 2 cbr 210 ------- 0 1.0 2.0 29 31
r 0.060192 1 0 ack 40 ------- 0 3.0 0.0 0 19
+ 0.060192 0 1 tcp 1040 ------- 0 0.0 3.0 1 38
- 0.060192 0 1 tcp 1040 ------- 0 0.0 3.0 1 38
+ 0.060192 0 1 tcp 1040 ------- 0 0.0 3.0 2 39
+ 0.06048 1 2 cbr 210 ------- 0 1.0 2.0 36 40
- 0.06048 1 2 cbr 210 ------- 0 1.0 2.0 36 40
r 0.060568 1 2 cbr 210 ------- 0 1.0 2.0 30 32
- 0.061024 0 1 tcp 1040 ------- 0 0.0 3.0 2 39
+ 0.06216 1 2 cbr 210 ------- 0 1.0 2.0 37 41
- 0.06216 1 2 cbr 210 ------- 0 1.0 2.0 37 41
r 0.062248 1 2 cbr 210 ------- 0 1.0 2.0 31 33
+ 0.06384 1 2 cbr 210 ------- 0 1.0 2.0 38 42
- 0.06384 1 2 cbr 210 ------- 0 1.0 2.0 38 42
r 0.063928 1 2 cbr 210 ------- 0 1.0 2.0 32 34
+ 0.06552 1 2 cbr 210 ------- 0 1.0 2.0 39 43
- 0.06552 1 2 cbr 210 ------- 0 1.0 2.0 39 43
r 0.065608 1 2 cbr 210 ------- 0 1.0 2.0 33 35
+ 0.0672 1 2 cbr 210 ------- 0 1.0 2.0 40 44
- 0.0672 1 2 cbr 210 ------- 0 1.0 2.0 40 44
r 0.067288 1 2 cbr 210 ------- 0 1.0 2.0 34 36
+ 0.06888 1 2 cbr 210 ------- 0 1.0 2.0 41 45
- 0.06888 1 2 cbr 210 ------- 0 1.0 2.0 41 45
r 0.068968 1 2 cbr 210 ------- 0 1.0 2.0 35 37
+ 0.07056 1 2 cbr 210 ------- 0 1.0 2.0 42 46
- 0.07056 1 2 cbr 210 ------- 0 1.0 2.0 42 46
r 0.070648 1 2 cbr 210 ------- 0 1.0 2.0 36 40
r 0.071024 0 1 tcp 1040 ------- 0 0.0 3.0 1 38
+ 0.071024 1 2 tcp 1040 ------- 0 0.0 3.0 1 38
- 0.071024 1 2 tcp 1040 ------- 0 0.0 3.0 1 38
r 0.071856 0 1 tcp 1040 ------- 0 0.0 3.0 2 39
+ 0.071856 1 2 tcp 1040 ------- 0 0.0 3.0 2 39
- 0.071856 1 2 tcp 1040 ------- 0 0.0 3.0 2 39
+ 0.07224 1 2 cbr 210 ------- 0 1.0 2.0 43 47
r 0.072328 1 2 cbr 210 ------- 0 1.0 2.0 37 41
- 0.072688 1 2 cbr 210 ------- 0 1.0 2.0 43 47
+ 0.07392 1 2 cbr 210 ------- 0 1.0 2.0 44 48
- 0.07392 1 2 cbr 210 ------- 0 1.0 2.0 44 48
r 0.074008 1 2 cbr 210 ------- 0 1.0 2.0 38 42
+ 0.0756 1 2 cbr 210 ------- 0 1.0 2.0 45 49
- 0.0756 1 2 cbr 210 ------- 0 1.0 2.0 45 49
r 0.075688 1 2 cbr 210 ------- 0 1.0 2.0 39 43
+ 0.07728 1 2 cbr 210 ------- 0 1.0 2.0 46 50
- 0.07728 1 2 cbr 210 ------- 0 1.0 2.0 46 50
r 0.077368 1 2 cbr 210 ------- 0 1.0 2.0 40 44
+ 0.07896 1 2 cbr 210 ------- 0 1.0 2.0 47 51
- 0.07896 1 2 cbr 210 ------- 0 1.0 2.0 47 51
r 0.079048 1 2 cbr 210 ------- 0 1.0 2.0 41 45
+ 0.08064 1 2 cbr 210 ------- 0 1.0 2.0 48 52
- 0.08064 1 2 cbr 210 ------- 0 1.0 2.0 48 52
r 0.080728 1 2 cbr 210 ------- 0 1.0 2.0 42 46
r 0.081856 1 2 tcp 1040 ------- 0 0.0 3.0 1 38
+ 0.081856 2 3 tcp 1040 ------- 0 0.0 3.0 1 38
- 0.081856 2 3 tcp 1040 ------- 0 0.0 3.0 1 38
+ 0.08232 1 2 cbr 210 ------- 0 1.0 2.0 49 53
- 0.08232 1 2 cbr 210 ------- 0 1.0 2.0 49 53
r 0.082688 1 2 tcp 1040 ------- 0 0.0 3.0 2 39
+ 0.082688 2 3 tcp 1040 ------- 0 0.0 3.0 2 39
- 0.082688 2 3 tcp 1040 ------- 0 0.0 3.0 2 39
r 0.082856 1 2 cbr 210 ------- 0 1.0 2.0 43 47
+ 0.084 1 2 cbr 210 ------- 0 1.0 2.0 50 54
- 0.084 1 2 cbr 210 ------- 0 1.0 2.0 50 54
r 0.084088 1 2 cbr 210 ------- 0 1.0 2.0 44 48
+ 0.08568 1 2 cbr 210 ------- 0 1.0 2.0 51 55
- 0.08568 1 2 cbr 210 ------- 0 1.0 2.0 51 55
r 0.085768 1 2 cbr 210 ------- 0 1.0 2.0 45 49
+ 0.08736 1 2 cbr 210 ------- 0 1.0 2.0 52 56
- 0.08736 1 2 cbr 210 ------- 0 1.0 2.0 52 56
r 0.087448 1 2 cbr 210 ------- 0 1.0 2.0 46 50
+ 0.08904 1 2 cbr 210 ------- 0 1.0 2.0 53 57
- 0.08904 1 2 cbr 210 ------- 0 1.0 2.0 53 57
r 0.089128 1 2 cbr 210 ------- 0 1.0 2.0 47 51
+ 0.09072 1 2 cbr 210 ------- 0 1.0 2.0 54 58
- 0.09072 1 2 cbr 210 ------- 0 1.0 2.0 54 58
r 0.090808 1 2 cbr 210 ------- 0 1.0 2.0 48 52
+ 0.0924 1 2 cbr 210 ------- 0 1.0 2.0 55 59
- 0.0924 1 2 cbr 210 ------- 0 1.0 2.0 55 59
r 0.092488 1 2 cbr 210 ------- 0 1.0 2.0 49 53
r 0.092688 2 3 tcp 1040 ------- 0 0.0 3.0 1 38
+ 0.092688 3 2 ack 40 ------- 0 3.0 0.0 1 60
- 0.092688 3 2 ack 40 ------- 0 3.0 0.0 1 60
r 0.09352 2 3 tcp 1040 ------- 0 0.0 3.0 2 39
+ 0.09352 3 2 ack 40 ------- 0 3.0 0.0 2 61
- 0.09352 3 2 ack 40 ------- 0 3.0 0.0 2 61
+ 0.09408 1 2 cbr 210 ------- 0 1.0 2.0 56 62
- 0.09408 1 2 cbr 210 ------- 0 1.0 2.0 56 62
r 0.094168 1 2 cbr 210 ------- 0 1.0 2.0 50 54
+ 0.09576 1 2 cbr 210 ------- 0 1.0 2.0 57 63
- 0.09576 1 2 cbr 210 ------- 0 1.0 2.0 57 63
r 0.095848 1 2 cbr 210 ------- 0 1.0 2.0 51 55
+ 0.09744 1 2 cbr 210 ------- 0 1.0 2.0 58 64
- 0.09744 1 2 cbr 210 ------- 0 1.0 2.0 58 64
r 0.097528 1 2 cbr 210 ------- 0 1.0 2.0 52 56
+ 0.09912 1 2 cbr 210 ------- 0 1.0 2.0 59 65
- 0.09912 1 2 cbr 210 ------- 0 1.0 2.0 59 65
r 0.099208 1 2 cbr 210 ------- 0 1.0 2.0 53 57
+ 0.1008 1 2 cbr 210 ------- 0 1.0 2.0 60 66
- 0.1008 1 2 cbr 210 ------- 0 1.0 2.0 60 66
r 0.100888 1 2 cbr 210 ------- 0 1.0 2.0 54 58
+ 0.10248 1 2 cbr 210 ------- 0 1.0 2.0 61 67
- 0.10248 1 2 cbr 210 ------- 0 1.0 2.0 61 67
r 0.102568 1 2 cbr 210 ------- 0 1.0 2.0 55 59
r 0.10272 3 2 ack 40 ------- 0 3.0 0.0 1 60
+ 0.10272 2 1 ack 40 ------- 0 3.0 0.0 1 60
- 0.10272 2 1 ack 40 ------- 0 3.0 0.0 1 60
r 0.103552 3 2 ack 40 ------- 0 3.0 0.0 2 61
+ 0.103552 2 1 ack 40 ------- 0 3.0 0.0 2 61
- 0.103552 2 1 ack 40 ------- 0 3.0 0.0 2 61
+ 0.10416 1 2 cbr 210 ------- 0 1.0 2.0 62 68
- 0.10416 1 2 cbr 210 ------- 0 1.0 2.0 62 68
r 0.104248 1 2 cbr 210 ------- 0 1.0 2.0 56 62
+ 0.10584 1 2 cbr 210 ------- 0 1.0 2.0 63 69
- 0.10584 1 2 cbr 210 ------- 0 1.0 2.0 63 69
r 0.105928 1 2 cbr 210 ------- 0 1.0 2.0 57 63
+ 0.10752 1 2 cbr 210 ------- 0 1.0 2.0 64 70
- 0.10752 1 2 cbr 210 ------- 0 1.0 2.0 64 70
r 0.107608 1 2 cbr 210 ------- 0 1.0 2.0 58 64
+ 0.1092 1 2 cbr 210 ------- 0 1.0 2.0 65 71
- 0.1092 1 2 cbr 210 ------- 0 1.0 2.0 65 71
r 0.109288 1 2 cbr 210 ------- 0 1.0 2.0 59 65
+ 0.11088 1 2 cbr 210 ------- 0 1.0 2.0 66 72
- 0.11088 1 2 cbr 210 ------- 0 1.0 2.0 66 72
r 0.110968 1 2 cbr 210 ------- 0 1.0 2.0 60 66
+ 0.11256 1 2 cbr 210 ------- 0 1.0 2.0 67 73
- 0.11256 1 2 cbr 210 ------- 0 1.0 2.0 67 73
r 0.112648 1 2 cbr 210 ------- 0 1.0 2.0 61 67
r 0.112752 2 1 ack 40 ------- 0 3.0 0.0 1 60
+ 0.112752 1 0 ack 40 ------- 0 3.0 0.0 1 60
- 0.112752 1 0 ack 40 ------- 0 3.0 0.0 1 60
r 0.113584 2 1 ack 40 ------- 0 3.0 0.0 2 61
+ 0.113584 1 0 ack 40 ------- 0 3.0 0.0 2 61
- 0.113584 1 0 ack 40 ------- 0 3.0 0.0 2 61
+ 0.11424 1 2 cbr 210 ------- 0 1.0 2.0 68 74
- 0.11424 1 2 cbr 210 ------- 0 1.0 2.0 68 74
r 0.114328 1 2 cbr 210 ------- 0 1.0 2.0 62 68
+ 0.11592 1 2 cbr 210 ------- 0 1.0 2.0 69 75
- 0.11592 1 2 cbr 210 ------- 0 1.0 2.0 69 75
r 0.116008 1 2 cbr 210 ------- 0 1.0 2.0 63 69
+ 0.1176 1 2 cbr 210 ------- 0 1.0 2.0 70 76
- 0.1176 1 2 cbr 210 ------- 0 1.0 2.0 70 76
r 0.117688 1 2 cbr 210 ------- 0 1.0 2.0 64 70
+ 0.11928 1 2 cbr 210 ------- 0 1.0 2.0 71 77
- 0.11928 1 2 cbr 210 ------- 0 1.0 2.0 71 77
r 0.119368 1 2 cbr 210 ------- 0 1.0 2.0 65 71
+ 0.12096 1 2 cbr 210 ------- 0 1.0 2.0 72 78
- 0.12096 1 2 cbr 210 ------- 0 1.0 2.0 72 78
r 0.121048 1 2 cbr 210 ------- 0 1.0 2.0 66 72
+ 0.12264 1 2 cbr 210 ------- 0 1.0 2.0 73 79
- 0.12264 1 2 cbr 210 ------- 0 1.0 2.0 73 79
r 0.122728 1 2 cbr 210 ------- 0 1.0 2.0 67 73
r 0.122784 1 0 ack 40 ------- 0 3.0 0.0 1 60
+ 0.122784 0 1 tcp 1040 ------- 0 0.0 3.0 3 80
- 0.122784 0 1 tcp 1040 ------- 0 0.0 3.0 3 80
+ 0.122784 0 1 tcp 1040 ------- 0 0.0 3.0 4 81
r 0.123616 1 0 ack 40 ------- 0 3.0 0.0 2 61
+ 0.123616 0 1 tcp 1040 ------- 0 0.0 3.0 5 82
+ 0.123616 0 1 tcp 1040 ------- 0 0.0 3.0 6 83
- 0.123616 0 1 tcp 1040 ------- 0 0.0 3.0 4 81
+ 0.12432 1 2 cbr 210 ------- 0 1.0 2.0 74 84
- 0.12432 1 2 cbr 210 ------- 0 1.0 2.0 74 84
r 0.124408 1 2 cbr 210 ------- 0 1.0 2.0 68 74
- 0.124448 0 1 tcp 1040 ------- 0 0.0 3.0 5 82
- 0.12528 0 1 tcp 1040 ------- 0 0.0 3.0 6 83
+ 0.126 1 2 cbr 210 ------- 0 1.0 2.0 75 85
- 0.126 1 2 cbr 210 ------- 0 1.0 2.0 75 85
r 0.126088 1 2 cbr 210 ------- 0 1.0 2.0 69 75
+ 0.12768 1 2 cbr 210 ------- 0 1.0 2.0 76 86
- 0.12768 1 2 cbr 210 ------- 0 1.0 2.0 76 86
r 0.127768 1 2 cbr 210 ------- 0 1.0 2.0 70 76
+ 0.12936 1 2 cbr 210 ------- 0 1.0 2.0 77 87
- 0.12936 1 2 cbr 210 ------- 0 1.0 2.0 77 87
r 0.129448 1 2 cbr 210 ------- 0 1.0 2.0 71 77
+ 0.13104 1 2 cbr 210 ------- 0 1.0 2.0 78 88
- 0.13104 1 2 cbr 210 ------- 0 1.0 2.0 78 88
r 0.131128 1 2 cbr 210 ------- 0 1.0 2.0 72 78
+ 0.13272 1 2 cbr 210 ------- 0 1.0 2.0 79 89
- 0.13272 1 2 cbr 210 ------- 0 1.0 2.0 79 89
r 0.132808 1 2 cbr 210 ------- 0 1.0 2.0 73 79
r 0.133616 0 1 tcp 1040 ------- 0 0.0 3.0 3 80
+ 0.133616 1 2 tcp 1040 ------- 0 0.0 3.0 3 80
- 0.133616 1 2 tcp 1040 ------- 0 0.0 3.0 3 80
+ 0.1344 1 2 cbr 210 ------- 0 1.0 2.0 80 90
r 0.134448 0 1 tcp 1040 ------- 0 0.0 3.0 4 81
+ 0.134448 1 2 tcp 1040 ------- 0 0.0 3.0 4 81
- 0.134448 1 2 cbr 210 ------- 0 1.0 2.0 80 90
r 0.134488 1 2 cbr 210 ------- 0 1.0 2.0 74 84
- 0.134616 1 2 tcp 1040 ------- 0 0.0 3.0 4 81
r 0.13528 0 1 tcp 1040 ------- 0 0.0 3.0 5 82
+ 0.13528 1 2 tcp 1040 ------- 0 0.0 3.0 5 82
- 0.135448 1 2 tcp 1040 ------- 0 0.0 3.0 5 82
+ 0.13608 1 2 cbr 210 ------- 0 1.0 2.0 81 91
r 0.136112 0 1 tcp 1040 ------- 0 0.0 3.0 6 83
+ 0.136112 1 2 tcp 1040 ------- 0 0.0 3.0 6 83
r 0.136168 1 2 cbr 210 ------- 0 1.0 2.0 75 85
- 0.13628 1 2 cbr 210 ------- 0 1.0 2.0 81 91
- 0.136448 1 2 tcp 1040 ------- 0 0.0 3.0 6 83
+ 0.13776 1 2 cbr 210 ------- 0 1.0 2.0 82 92
- 0.13776 1 2 cbr 210 ------- 0 1.0 2.0 82 92
r 0.137848 1 2 cbr 210 ------- 0 1.0 2.0 76 86
+ 0.13944 1 2 cbr 210 ------- 0 1.0 2.0 83 93
- 0.13944 1 2 cbr 210 ------- 0 1.0 2.0 83 93
r 0.139528 1 2 cbr 210 ------- 0 1.0 2.0 77 87
+ 0.14112 1 2 cbr 210 ------- 0 1.0 2.0 84 94
- 0.14112 1 2 cbr 210 ------- 0 1.0 2.0 84 94
r 0.141208 1 2 cbr 210 ------- 0 1.0 2.0 78 88
+ 0.1428 1 2 cbr 210 ------- 0 1.0 2.0 85 95
- 0.1428 1 2 cbr 210 ------- 0 1.0 2.0 85 95
r 0.142888 1 2 cbr 210 ------- 0 1.0 2.0 79 89
r 0.144448 1 2 tcp 1040 ------- 0 0.0 3.0 3 80
+ 0.144448 2 3 tcp 1040 ------- 0 0.0 3.0 3 80
- 0.144448 2 3 tcp 1040 ------- 0 0.0 3.0 3 80
+ 0.14448 1 2 cbr 210 ------- 0 1.0 2.0 86 96
- 0.14448 1 2 cbr 210 ------- 0 1.0 2.0 86 96
r 0.144616 1 2 cbr 210 ------- 0 1.0 2.0 80 90
r 0.145448 1 2 tcp 1040 ------- 0 0.0 3.0 4 81
+ 0.145448 2 3 tcp 1040 ------- 0 0.0 3.0 4 81
- 0.145448 2 3 tcp 1040 ------- 0 0.0 3.0 4 81
+ 0.14616 1 2 cbr 210 ------- 0 1.0 2.0 87 97
- 0.14616 1 2 cbr 210 ------- 0 1.0 2.0 87 97
r 0.14628 1 2 tcp 1040 ------- 0 0.0 3.0 5 82
+ 0.14628 2 3 tcp 1040 ------- 0 0.0 3.0 5 82
- 0.14628 2 3 tcp 1040 ------- 0 0.0 3.0 5 82
r 0.146448 1 2 cbr 210 ------- 0 1.0 2.0 81 91
r 0.14728 1 2 tcp 1040 ------- 0 0.0 3.0 6 83
+ 0.14728 2 3 tcp 1040 ------- 0 0.0 3.0 6 83
- 0.14728 2 3 tcp 1040 ------- 0 0.0 3.0 6 83
+ 0.14784 1 2 cbr 210 ------- 0 1.0 2.0 88 98
- 0.14784 1 2 cbr 210 ------- 0 1.0 2.0 88 98
r 0.147928 1 2 cbr 210 ------- 0 1.0 2.0 82 92
+ 0.14952 1 2 cbr 210 ------- 0 1.0 2.0 89 99
- 0.14952 1 2 cbr 210 ------- 0 1.0 2.0 89 99
r 0.149608 1 2 cbr 210 ------- 0 1.0 2.0 83 93
+ 0.1512 1 2 cbr 210 ------- 0 1.0 2.0 90 100
- 0.1512 1 2 cbr 210 ------- 0 1.0 2.0 90 100
r 0.151288 1 2 cbr 210 ------- 0 1.0 2.0 84 94
+ 0.15288 1 2 cbr 210 ------- 0 1.0 2.0 91 101
- 0.15288 1 2 cbr 210 ------- 0 1.0 2.0 91 101
r 0.152968 1 2 cbr 210 ------- 0 1.0 2.0 85 95
+ 0.15456 1 2 cbr 210 ------- 0 1.0 2.0 92 102
- 0.15456 1 2 cbr 210 ------- 0 1.0 2.0 92 102
r 0.154648 1 2 cbr 210 ------- 0 1.0 2.0 86 96
r 0.15528 2 3 tcp 1040 ------- 0 0.0 3.0 3 80
+ 0.15528 3 2 ack 40 ------- 0 3.0 0.0 3 103
- 0.15528 3 2 ack 40 ------- 0 3.0 0.0 3 103
+ 0.15624 1 2 cbr 210 ------- 0 1.0 2.0 93 104
- 0.15624 1 2 cbr 210 ------- 0 1.0 2.0 93 104
r 0.15628 2 3 tcp 1040 ------- 0 0.0 3.0 4 81
+ 0.15628 3 2 ack 40 ------- 0 3.0 0.0 4 105
- 0.15628 3 2 ack 40 ------- 0 3.0 0.0 4 105
r 0.156328 1 2 cbr 210 ------- 0 1.0 2.0 87 97
r 0.157112 2 3 tcp 1040 ------- 0 0.0 3.0 5 82
+ 0.157112 3 2 ack 40 ------- 0 3.0 0.0 5 106
- 0.157112 3 2 ack 40 ------- 0 3.0 0.0 5 106
+ 0.15792 1 2 cbr 210 ------- 0 1.0 2.0 94 107
- 0.15792 1 2 cbr 210 ------- 0 1.0 2.0 94 107
r 0.158008 1 2 cbr 210 ------- 0 1.0 2.0 88 98
r 0.158112 2 3 tcp 1040 ------- 0 0.0 3.0 6 83
+ 0.158112 3 2 ack 40 ------- 0 3.0 0.0 6 108
- 0.158112 3 2 ack 40 ------- 0 3.0 0.0 6 108
+ 0.1596 1 2 cbr 210 ------- 0 1.0 2.0 95 109
- 0.1596 1 2 cbr 210 ------- 0 1.0 2.0 95 109
r 0.159688 1 2 cbr 210 ------- 0 1.0 2.0 89 99
+ 0.16128 1 2 cbr 210 ------- 0 1.0 2.0 96 110
- 0.16128 1 2 cbr 210 ------- 0 1.0 2.0 96 110
r 0.161368 1 2 cbr 210 ------- 0 1.0 2.0 90 100
+ 0.16296 1 2 cbr 210 ------- 0 1.0 2.0 97 111
- 0.16296 1 2 cbr 210 ------- 0 1.0 2.0 97 111
r 0.163048 1 2 cbr 210 ------- 0 1.0 2.0 91 101
+ 0.16464 1 2 cbr 210 ------- 0 1.0 2.0 98 112
- 0.16464 1 2 cbr 210 ------- 0 1.0 2.0 98 112
r 0.164728 1 2 cbr 210 ------- 0 1.0 2.0 92 102
r 0.165312 3 2 ack 40 ------- 0 3.0 0.0 3 103
+ 0.165312 2 1 ack 40 ------- 0 3.0 0.0 3 103
- 0.165312 2 1 ack 40 ------- 0 3.0 0.0 3 103
r 0.166312 3 2 ack 40 ------- 0 3.0 0.0 4 105
+ 0.166312 2 1 ack 40 ------- 0 3.0 0.0 4 105
- 0.166312 2 1 ack 40 ------- 0 3.0 0.0 4 105
+ 0.16632 1 2 cbr 210 ------- 0 1.0 2.0 99 113
- 0.16632 1 2 cbr 210 ------- 0 1.0 2.0 99 113
r 0.166408 1 2 cbr 210 ------- 0 1.0 2.0 93 104
r 0.167144 3 2 ack 40 ------- 0 3.0 0.0 5 106
+ 0.167144 2 1 ack 40 ------- 0 3.0 0.0 5 106
- 0.167144 2 1 ack 40 ------- 0 3.0 0.0 5 106
+ 0.168 1 2 cbr 210 ------- 0 1.0 2.0 100 114
- 0.168 1 2 cbr 210 ------- 0 1.0 2.0 100 114
r 0.168088 1 2 cbr 210 ------- 0 1.0 2.0 94 107
r 0.168144 3 2 ack 40 ------- 0 3.0 0.0 6 108
+ 0.168144 2 1 ack 40 ------- 0 3.0 0.0 6 108
- 0.168144 2 1 ack 40 ------- 0 3.0 0.0 6 108
+ 0.16968 1 2 cbr 210 ------- 0 1.0 2.0 101 115
- 0.16968 1 2 cbr 210 ------- 0 1.0 2.0 101 115
r 0.169768 1 2 cbr 210 ------- 0 1.0 2.0 95 109
+ 0.17136 1 2 cbr 210 ------- 0 1.0 2.0 102 116
- 0.17136 1 2 cbr 210 ------- 0 1.0 2.0 102 116
r 0.171448 1 2 cbr 210 ------- 0 1.0 2.0 96 110
+ 0.17304 1 2 cbr 210 ------- 0 1.0 2.0 103 117
- 0.17304 1 2 cbr 210 ------- 0 1.0 2.0 103 117
r 0.173128 1 2 cbr 210 ------- 0 1.0 2.0 97 111
+ 0.17472 1 2 cbr 210 ------- 0 1.0 2.0 104 118
- 0.17472 1 2 cbr 210 ------- 0 1.0 2.0 104 118
r 0.174808 1 2 cbr 210 ------- 0 1.0 2.0 98 112
r 0.175344 2 1 ack 40 ------- 0 3.0 0.0 3 103
+ 0.175344 1 0 ack 40 ------- 0 3.0 0.0 3 103
- 0.175344 1 0 ack 40 ------- 0 3.0 0.0 3 103
r 0.176344 2 1 ack 40 ------- 0 3.0 0.0 4 105
+ 0.176344 1 0 ack 40 ------- 0 3.0 0.0 4 105
- 0.176344 1 0 ack 40 ------- 0 3.0 0.0 4 105
+ 0.1764 1 2 cbr 210 ------- 0 1.0 2.0 105 119
- 0.1764 1 2 cbr 210 ------- 0 1.0 2.0 105 119
r 0.176488 1 2 cbr 210 ------- 0 1.0 2.0 99 113
r 0.177176 2 1 ack 40 ------- 0 3.0 0.0 5 106
+ 0.177176 1 0 ack 40 ------- 0 3.0 0.0 5 106
- 0.177176 1 0 ack 40 ------- 0 3.0 0.0 5 106
+ 0.17808 1 2 cbr 210 ------- 0 1.0 2.0 106 120
- 0.17808 1 2 cbr 210 ------- 0 1.0 2.0 106 120
r 0.178168 1 2 cbr 210 ------- 0 1.0 2.0 100 114
r 0.178176 2 1 ack 40 ------- 0 3.0 0.0 6 108
+ 0.178176 1 0 ack 40 ------- 0 3.0 0.0 6 108
- 0.178176 1 0 ack 40 ------- 0 3.0 0.0 6 108
+ 0.17976 1 2 cbr 210 ------- 0 1.0 2.0 107 121
- 0.17976 1 2 cbr 210 ------- 0 1.0 2.0 107 121
r 0.179848 1 2 cbr 210 ------- 0 1.0 2.0 101 115
+ 0.18144 1 2 cbr 210 ------- 0 1.0 2.0 108 122
- 0.18144 1 2 cbr 210 ------- 0 1.0 2.0 108 122
r 0.181528 1 2 cbr 210 ------- 0 1.0 2.0 102 116
+ 0.18312 1 2 cbr 210 ------- 0 1.0 2.0 109 123
- 0.18312 1 2 cbr 210 ------- 0 1.0 2.0 109 123
r 0.183208 1 2 cbr 210 ------- 0 1.0 2.0 103 117
+ 0.1848 1 2 cbr 210 ------- 0 1.0 2.0 110 124
- 0.1848 1 2 cbr 210 ------- 0 1.0 2.0 110 124
r 0.184888 1 2 cbr 210 ------- 0 1.0 2.0 104 118
r 0.185376 1 0 ack 40 ------- 0 3.0 0.0 3 103
+ 0.185376 0 1 tcp 1040 ------- 0 0.0 3.0 7 125
- 0.185376 0 1 tcp 1040 ------- 0 0.0 3.0 7 125
+ 0.185376 0 1 tcp 1040 ------- 0 0.0 3.0 8 126
- 0.186208 0 1 tcp 1040 ------- 0 0.0 3.0 8 126
r 0.186376 1 0 ack 40 ------- 0 3.0 0.0 4 105
+ 0.186376 0 1 tcp 1040 ------- 0 0.0 3.0 9 127
+ 0.186376 0 1 tcp 1040 ------- 0 0.0 3.0 10 128
+ 0.18648 1 2 cbr 210 ------- 0 1.0 2.0 111 129
- 0.18648 1 2 cbr 210 ------- 0 1.0 2.0 111 129
r 0.186568 1 2 cbr 210 ------- 0 1.0 2.0 105 119
- 0.18704 0 1 tcp 1040 ------- 0 0.0 3.0 9 127
r 0.187208 1 0 ack 40 ------- 0 3.0 0.0 5 106
+ 0.187208 0 1 tcp 1040 ------- 0 0.0 3.0 11 130
+ 0.187208 0 1 tcp 1040 ------- 0 0.0 3.0 12 131
- 0.187872 0 1 tcp 1040 ------- 0 0.0 3.0 10 128
+ 0.18816 1 2 cbr 210 ------- 0 1.0 2.0 112 132
- 0.18816 1 2 cbr 210 ------- 0 1.0 2.0 112 132
r 0.188208 1 0 ack 40 ------- 0 3.0 0.0 6 108
+ 0.188208 0 1 tcp 1040 ------- 0 0.0 3.0 13 133
+ 0.188208 0 1 tcp 1040 ------- 0 0.0 3.0 14 134
r 0.188248 1 2 cbr 210 ------- 0 1.0 2.0 106 120
- 0.188704 0 1 tcp 1040 ------- 0 0.0 3.0 11 130
- 0.189536 0 1 tcp 1040 ------- 0 0.0 3.0 12 131
+ 0.18984 1 2 cbr 210 ------- 0 1.0 2.0 113 135
- 0.18984 1 2 cbr 210 ------- 0 1.0 2.0 113 135
r 0.189928 1 2 cbr 210 ------- 0 1.0 2.0 107 121
- 0.190368 0 1 tcp 1040 ------- 0 0.0 3.0 13 133
- 0.1912 0 1 tcp 1040 ------- 0 0.0 3.0 14 134
+ 0.19152 1 2 cbr 210 ------- 0 1.0 2.0 114 136
- 0.19152 1 2 cbr 210 ------- 0 1.0 2.0 114 136
r 0.191608 1 2 cbr 210 ------- 0 1.0 2.0 108 122
+ 0.1932 1 2 cbr 210 ------- 0 1.0 2.0 115 137
- 0.1932 1 2 cbr 210 ------- 0 1.0 2.0 115 137
r 0.193288 1 2 cbr 210 ------- 0 1.0 2.0 109 123
+ 0.19488 1 2 cbr 210 ------- 0 1.0 2.0 116 138
- 0.19488 1 2 cbr 210 ------- 0 1.0 2.0 116 138
r 0.194968 1 2 cbr 210 ------- 0 1.0 2.0 110 124
r 0.196208 0 1 tcp 1040 ------- 0 0.0 3.0 7 125
+ 0.196208 1 2 tcp 1040 ------- 0 0.0 3.0 7 125
- 0.196208 1 2 tcp 1040 ------- 0 0.0 3.0 7 125
+ 0.19656 1 2 cbr 210 ------- 0 1.0 2.0 117 139
r 0.196648 1 2 cbr 210 ------- 0 1.0 2.0 111 129
r 0.19704 0 1 tcp 1040 ------- 0 0.0 3.0 8 126
+ 0.19704 1 2 tcp 1040 ------- 0 0.0 3.0 8 126
- 0.19704 1 2 cbr 210 ------- 0 1.0 2.0 117 139
- 0.197208 1 2 tcp 1040 ------- 0 0.0 3.0 8 126
r 0.197872 0 1 tcp 1040 ------- 0 0.0 3.0 9 127
+ 0.197872 1 2 tcp 1040 ------- 0 0.0 3.0 9 127
- 0.19804 1 2 tcp 1040 ------- 0 0.0 3.0 9 127
+ 0.19824 1 2 cbr 210 ------- 0 1.0 2.0 118 140
r 0.198328 1 2 cbr 210 ------- 0 1.0 2.0 112 132
r 0.198704 0 1 tcp 1040 ------- 0 0.0 3.0 10 128
+ 0.198704 1 2 tcp 1040 ------- 0 0.0 3.0 10 128
- 0.198872 1 2 cbr 210 ------- 0 1.0 2.0 118 140
- 0.19904 1 2 tcp 1040 ------- 0 0.0 3.0 10 128
r 0.199536 0 1 tcp 1040 ------- 0 0.0 3.0 11 130
+ 0.199536 1 2 tcp 1040 ------- 0 0.0 3.0 11 130
- 0.199872 1 2 tcp 1040 ------- 0 0.0 3.0 11 130
+ 0.19992 1 2 cbr 210 ------- 0 1.0 2.0 119 141
r 0.200008 1 2 cbr 210 ------- 0 1.0 2.0 113 135
r 0.200368 0 1 tcp 1040 ------- 0 0.0 3.0 12 131
+ 0.200368 1 2 tcp 1040 ------- 0 0.0 3.0 12 131
- 0.200704 1 2 cbr 210 ------- 0 1.0 2.0 119 141
- 0.200872 1 2 tcp 1040 ------- 0 0.0 3.0 12 131
r 0.2012 0 1 tcp 1040 ------- 0 0.0 3.0 13 133
+ 0.2012 1 2 tcp 1040 ------- 0 0.0 3.0 13 133
+ 0.2016 1 2 cbr 210 ------- 0 1.0 2.0 120 142
r 0.201688 1 2 cbr 210 ------- 0 1.0 2.0 114 136
- 0.201704 1 2 tcp 1040 ------- 0 0.0 3.0 13 133
r 0.202032 0 1 tcp 1040 ------- 0 0.0 3.0 14 134
+ 0.202032 1 2 tcp 1040 ------- 0 0.0 3.0 14 134
- 0.202536 1 2 cbr 210 ------- 0 1.0 2.0 120 142
- 0.202704 1 2 tcp 1040 ------- 0 0.0 3.0 14 134
+ 0.20328 1 2 cbr 210 ------- 0 1.0 2.0 121 143
r 0.203368 1 2 cbr 210 ------- 0 1.0 2.0 115 137
- 0.203536 1 2 cbr 210 ------- 0 1.0 2.0 121 143
+ 0.20496 1 2 cbr 210 ------- 0 1.0 2.0 122 144
- 0.20496 1 2 cbr 210 ------- 0 1.0 2.0 122 144
r 0.205048 1 2 cbr 210 ------- 0 1.0 2.0 116 138
+ 0.20664 1 2 cbr 210 ------- 0 1.0 2.0 123 145
- 0.20664 1 2 cbr 210 ------- 0 1.0 2.0 123 145
r 0.20704 1 2 tcp 1040 ------- 0 0.0 3.0 7 125
+ 0.20704 2 3 tcp 1040 ------- 0 0.0 3.0 7 125
- 0.20704 2 3 tcp 1040 ------- 0 0.0 3.0 7 125
r 0.207208 1 2 cbr 210 ------- 0 1.0 2.0 117 139
r 0.20804 1 2 tcp 1040 ------- 0 0.0 3.0 8 126
+ 0.20804 2 3 tcp 1040 ------- 0 0.0 3.0 8 126
- 0.20804 2 3 tcp 1040 ------- 0 0.0 3.0 8 126
+ 0.20832 1 2 cbr 210 ------- 0 1.0 2.0 124 146
- 0.20832 1 2 cbr 210 ------- 0 1.0 2.0 124 146
r 0.208872 1 2 tcp 1040 ------- 0 0.0 3.0 9 127
+ 0.208872 2 3 tcp 1040 ------- 0 0.0 3.0 9 127
- 0.208872 2 3 tcp 1040 ------- 0 0.0 3.0 9 127
r 0.20904 1 2 cbr 210 ------- 0 1.0 2.0 118 140
r 0.209872 1 2 tcp 1040 ------- 0 0.0 3.0 10 128
+ 0.209872 2 3 tcp 1040 ------- 0 0.0 3.0 10 128
- 0.209872 2 3 tcp 1040 ------- 0 0.0 3.0 10 128
+ 0.21 1 2 cbr 210 ------- 0 1.0 2.0 125 147
- 0.21 1 2 cbr 210 ------- 0 1.0 2.0 125 147
r 0.210704 1 2 tcp 1040 ------- 0 0.0 3.0 11 130
+ 0.210704 2 3 tcp 1040 ------- 0 0.0 3.0 11 130
- 0.210704 2 3 tcp 1040 ------- 0 0.0 3.0 11 130
r 0.210872 1 2 cbr 210 ------- 0 1.0 2.0 119 141
+ 0.21168 1 2 cbr 210 ------- 0 1.0 2.0 126 148
- 0.21168 1 2 cbr 210 ------- 0 1.0 2.0 126 148
r 0.211704 1 2 tcp 1040 ------- 0 0.0 3.0 12 131
+ 0.211704 2 3 tcp 1040 ------- 0 0.0 3.0 12 131
- 0.211704 2 3 tcp 1040 ------- 0 0.0 3.0 12 131
r 0.212536 1 2 tcp 1040 ------- 0 0.0 3.0 13 133
+ 0.212536 2 3 tcp 1040 ------- 0 0.0 3.0 13 133
- 0.212536 2 3 tcp 1040 ------- 0 0.0 3.0 13 133
r 0.212704 1 2 cbr 210 ------- 0 1.0 2.0 120 142
+ 0.21336 1 2 cbr 210 ------- 0 1.0 2.0 127 149
- 0.21336 1 2 cbr 210 ------- 0 1.0 2.0 127 149
r 0.213536 1 2 tcp 1040 ------- 0 0.0 3.0 14 134
+ 0.213536 2 3 tcp 1040 ------- 0 0.0 3.0 14 134
- 0.213536 2 3 tcp 1040 ------- 0 0.0 3.0 14 134
r 0.213704 1 2 cbr 210 ------- 0 1.0 2.0 121 143
+ 0.21504 1 2 cbr 210 ------- 0 1.0 2.0 128 150
- 0.21504 1 2 cbr 210 ------- 0 1.0 2.0 128 150
r 0.215128 1 2 cbr 210 ------- 0 1.0 2.0 122 144
+ 0.21672 1 2 cbr 210 ------- 0 1.0 2.0 129 151
- 0.21672 1 2 cbr 210 ------- 0 1.0 2.0 129 151
r 0.216808 1 2 cbr 210 ------- 0 1.0 2.0 123 145
r 0.217872 2 3 tcp 1040 ------- 0 0.0 3.0 7 125
+ 0.217872 3 2 ack 40 ------- 0 3.0 0.0 7 152
- 0.217872 3 2 ack 40 ------- 0 3.0 0.0 7 152
+ 0.2184 1 2 cbr 210 ------- 0 1.0 2.0 130 153
- 0.2184 1 2 cbr 210 ------- 0 1.0 2.0 130 153
r 0.218488 1 2 cbr 210 ------- 0 1.0 2.0 124 146
r 0.218872 2 3 tcp 1040 ------- 0 0.0 3.0 8 126
+ 0.218872 3 2 ack 40 ------- 0 3.0 0.0 8 154
- 0.218872 3 2 ack 40 ------- 0 3.0 0.0 8 154
r 0.219704 2 3 tcp 1040 ------- 0 0.0 3.0 9 127
+ 0.219704 3 2 ack 40 ------- 0 3.0 0.0 9 155
- 0.219704 3 2 ack 40 ------- 0 3.0 0.0 9 155
+ 0.22008 1 2 cbr 210 ------- 0 1.0 2.0 131 156
- 0.22008 1 2 cbr 210 ------- 0 1.0 2.0 131 156
r 0.220168 1 2 cbr 210 ------- 0 1.0 2.0 125 147
r 0.220704 2 3 tcp 1040 ------- 0 0.0 3.0 10 128
+ 0.220704 3 2 ack 40 ------- 0 3.0 0.0 10 157
- 0.220704 3 2 ack 40 ------- 0 3.0 0.0 10 157
r 0.221536 2 3 tcp 1040 ------- 0 0.0 3.0 11 130
+ 0.221536 3 2 ack 40 ------- 0 3.0 0.0 11 158
- 0.221536 3 2 ack 40 ------- 0 3.0 0.0 11 158
+ 0.22176 1 2 cbr 210 ------- 0 1.0 2.0 132 159
- 0.22176 1 2 cbr 210 ------- 0 1.0 2.0 132 159
r 0.221848 1 2 cbr 210 ------- 0 1.0 2.0 126 148
r 0.222536 2 3 tcp 1040 ------- 0 0.0 3.0 12 131
+ 0.222536 3 2 ack 40 ------- 0 3.0 0.0 12 160
- 0.222536 3 2 ack 40 ------- 0 3.0 0.0 12 160
r 0.223368 2 3 tcp 1040 ------- 0 0.0 3.0 13 133
+ 0.223368 3 2 ack 40 ------- 0 3.0 0.0 13 161
- 0.223368 3 2 ack 40 ------- 0 3.0 0.0 13 161
+ 0.22344 1 2 cbr 210 ------- 0 1.0 2.0 133 162
- 0.22344 1 2 cbr 210 ------- 0 1.0 2.0 133 162
r 0.223528 1 2 cbr 210 ------- 0 1.0 2.0 127 149
r 0.224368 2 3 tcp 1040 ------- 0 0.0 3.0 14 134
+ 0.224368 3 2 ack 40 ------- 0 3.0 0.0 14 163
- 0.224368 3 2 ack 40 ------- 0 3.0 0.0 14 163
+ 0.22512 1 2 cbr 210 ------- 0 1.0 2.0 134 164
- 0.22512 1 2 cbr 210 ------- 0 1.0 2.0 134 164
r 0.225208 1 2 cbr 210 ------- 0 1.0 2.0 128 150
+ 0.2268 1 2 cbr 210 ------- 0 1.0 2.0 135 165
- 0.2268 1 2 cbr 210 ------- 0 1.0 2.0 135 165
r 0.226888 1 2 cbr 210 ------- 0 1.0 2.0 129 151
r 0.227904 3 2 ack 40 ------- 0 3.0 0.0 7 152
+ 0.227904 2 1 ack 40 ------- 0 3.0 0.0 7 152
- 0.227904 2 1 ack 40 ------- 0 3.0 0.0 7 152
+ 0.22848 1 2 cbr 210 ------- 0 1.0 2.0 136 166
- 0.22848 1 2 cbr 210 ------- 0 1.0 2.0 136 166
r 0.228568 1 2 cbr 210 ------- 0 1.0 2.0 130 153
r 0.228904 3 2 ack 40 ------- 0 3.0 0.0 8 154
+ 0.228904 2 1 ack 40 ------- 0 3.0 0.0 8 154
- 0.228904 2 1 ack 40 ------- 0 3.0 0.0 8 154
r 0.229736 3 2 ack 40 ------- 0 3.0 0.0 9 155
+ 0.229736 2 1 ack 40 ------- 0 3.0 0.0 9 155
- 0.229736 2 1 ack 40 ------- 0 3.0 0.0 9 155
+ 0.23016 1 2 cbr 210 ------- 0 1.0 2.0 137 167
- 0.23016 1 2 cbr 210 ------- 0 1.0 2.0 137 167
r 0.230248 1 2 cbr 210 ------- 0 1.0 2.0 131 156
r 0.230736 3 2 ack 40 ------- 0 3.0 0.0 10 157
+ 0.230736 2 1 ack 40 ------- 0 3.0 0.0 10 157
- 0.230736 2 1 ack 40 ------- 0 3.0 0.0 10 157
r 0.231568 3 2 ack 40 ------- 0 3.0 0.0 11 158
+ 0.231568 2 1 ack 40 ------- 0 3.0 0.0 11 158
- 0.231568 2 1 ack 40 ------- 0 3.0 0.0 11 158
+ 0.23184 1 2 cbr 210 ------- 0 1.0 2.0 138 168
- 0.23184 1 2 cbr 210 ------- 0 1.0 2.0 138 168
r 0.231928 1 2 cbr 210 ------- 0 1.0 2.0 132 159
r 0.232568 3 2 ack 40 ------- 0 3.0 0.0 12 160
+ 0.232568 2 1 ack 40 ------- 0 3.0 0.0 12 160
- 0.232568 2 1 ack 40 ------- 0 3.0 0.0 12 160