+ 0 1 2 cbr 210 ------- 1 1.0 2.0 0 0
- 0 1 2 cbr 210 ------- 1 1.0 2.0 0 0
+ 0 0 1 tcp 1000 ------- 2 0.0 3.0 0 1
- 0 0 1 tcp 1000 ------- 2 0.0 3.0 0 1
+ 0.00168 1 2 cbr 210 ------- 1 1.0 2.0 1 2
- 0.00168 1 2 cbr 210 ------- 1 1.0 2.0 1 2
+ 0.00336 1 2 cbr 210 ------- 1 1.0 2.0 2 3
- 0.00336 1 2 cbr 210 ------- 1 1.0 2.0 2 3
+ 0.00504 1 2 cbr 210 ------- 1 1.0 2.0 3 4
- 0.00504 1 2 cbr 210 ------- 1 1.0 2.0 3 4
+ 0.00672 1 2 cbr 210 ------- 1 1.0 2.0 4 5
- 0.00672 1 2 cbr 210 ------- 1 1.0 2.0 4 5
+ 0.0084 1 2 cbr 210 ------- 1 1.0 2.0 5 6
- 0.0084 1 2 cbr 210 ------- 1 1.0 2.0 5 6
+ 0.01008 1 2 cbr 210 ------- 1 1.0 2.0 6 7
- 0.01008 1 2 cbr 210 ------- 1 1.0 2.0 6 7
r 0.010168 1 2 cbr 210 ------- 1 1.0 2.0 0 0
r 0.0108 0 1 tcp 1000 ------- 2 0.0 3.0 0 1
+ 0.0108 1 2 tcp 1000 ------- 2 0.0 3.0 0 1
- 0.0108 1 2 tcp 1000 ------- 2 0.0 3.0 0 1
+ 0.01176 1 2 cbr 210 ------- 1 1.0 2.0 7 8
- 0.01176 1 2 cbr 210 ------- 1 1.0 2.0 7 8
r 0.011848 1 2 cbr 210 ------- 1 1.0 2.0 1 2
+ 0.01344 1 2 cbr 210 ------- 1 1.0 2.0 8 9
- 0.01344 1 2 cbr 210 ------- 1 1.0 2.0 8 9
r 0.013528 1 2 cbr 210 ------- 1 1.0 2.0 2 3
+ 0.01512 1 2 cbr 210 ------- 1 1.0 2.0 9 10
- 0.01512 1 2 cbr 210 ------- 1 1.0 2.0 9 10
r 0.015208 1 2 cbr 210 ------- 1 1.0 2.0 3 4
+ 0.0168 1 2 cbr 210 ------- 1 1.0 2.0 10 11
- 0.0168 1 2 cbr 210 ------- 1 1.0 2.0 10 11
r 0.016888 1 2 cbr 210 ------- 1 1.0 2.0 4 5
+ 0.01848 1 2 cbr 210 ------- 1 1.0 2.0 11 12
- 0.01848 1 2 cbr 210 ------- 1 1.0 2.0 11 12
r 0.018568 1 2 cbr 210 ------- 1 1.0 2.0 5 6
+ 0.02016 1 2 cbr 210 ------- 1 1.0 2.0 12 13
- 0.02016 1 2 cbr 210 ------- 1 1.0 2.0 12 13
r 0.020248 1 2 cbr 210 ------- 1 1.0 2.0 6 7
r 0.0216 1 2 tcp 1000 ------- 2 0.0 3.0 0 1
+ 0.0216 2 3 tcp 1000 ------- 2 0.0 3.0 0 1
- 0.0216 2 3 tcp 1000 ------- 2 0.0 3.0 0 1
+ 0.02184 1 2 cbr 210 ------- 1 1.0 2.0 13 14
- 0.02184 1 2 cbr 210 ------- 1 1.0 2.0 13 14
r 0.021928 1 2 cbr 210 ------- 1 1.0 2.0 7 8
+ 0.02352 1 2 cbr 210 ------- 1 1.0 2.0 14 15
- 0.02352 1 2 cbr 210 ------- 1 1.0 2.0 14 15
r 0.023608 1 2 cbr 210 ------- 1 1.0 2.0 8 9
+ 0.0252 1 2 cbr 210 ------- 1 1.0 2.0 15 16
- 0.0252 1 2 cbr 210 ------- 1 1.0 2.0 15 16
r 0.025288 1 2 cbr 210 ------- 1 1.0 2.0 9 10
+ 0.02688 1 2 cbr 210 ------- 1 1.0 2.0 16 17
- 0.02688 1 2 cbr 210 ------- 1 1.0 2.0 16 17
r 0.026968 1 2 cbr 210 ------- 1 1.0 2.0 10 11
+ 0.02856 1 2 cbr 210 ------- 1 1.0 2.0 17 18
- 0.02856 1 2 cbr 210 ------- 1 1.0 2.0 17 18
r 0.028648 1 2 cbr 210 ------- 1 1.0 2.0 11 12
+ 0.03024 1 2 cbr 210 ------- 1 1.0 2.0 18 19
- 0.03024 1 2 cbr 210 ------- 1 1.0 2.0 18 19
r 0.030328 1 2 cbr 210 ------- 1 1.0 2.0 12 13
+ 0.03192 1 2 cbr 210 ------- 1 1.0 2.0 19 20
- 0.03192 1 2 cbr 210 ------- 1 1.0 2.0 19 20
r 0.032008 1 2 cbr 210 ------- 1 1.0 2.0 13 14
r 0.0324 2 3 tcp 1000 ------- 2 0.0 3.0 0 1
+ 0.0324 3 2 ack 40 ------- 2 3.0 0.0 0 21
- 0.0324 3 2 ack 40 ------- 2 3.0 0.0 0 21
+ 0.0336 1 2 cbr 210 ------- 1 1.0 2.0 20 22
- 0.0336 1 2 cbr 210 ------- 1 1.0 2.0 20 22
r 0.033688 1 2 cbr 210 ------- 1 1.0 2.0 14 15
+ 0.03528 1 2 cbr 210 ------- 1 1.0 2.0 21 23
- 0.03528 1 2 cbr 210 ------- 1 1.0 2.0 21 23
r 0.035368 1 2 cbr 210 ------- 1 1.0 2.0 15 16
+ 0.03696 1 2 cbr 210 ------- 1 1.0 2.0 22 24
- 0.03696 1 2 cbr 210 ------- 1 1.0 2.0 22 24
r 0.037048 1 2 cbr 210 ------- 1 1.0 2.0 16 17
+ 0.03864 1 2 cbr 210 ------- 1 1.0 2.0 23 25
- 0.03864 1 2 cbr 210 ------- 1 1.0 2.0 23 25
r 0.038728 1 2 cbr 210 ------- 1 1.0 2.0 17 18
+ 0.04032 1 2 cbr 210 ------- 1 1.0 2.0 24 26
- 0.04032 1 2 cbr 210 ------- 1 1.0 2.0 24 26
r 0.040408 1 2 cbr 210 ------- 1 1.0 2.0 18 19
+ 0.042 1 2 cbr 210 ------- 1 1.0 2.0 25 27
- 0.042 1 2 cbr 210 ------- 1 1.0 2.0 25 27
r 0.042088 1 2 cbr 210 ------- 1 1.0 2.0 19 20
r 0.042432 3 2 ack 40 ------- 2 3.0 0.0 0 21
+ 0.042432 2 1 ack 40 ------- 2 3.0 0.0 0 21
- 0.042432 2 1 ack 40 ------- 2 3.0 0.0 0 21
+ 0.04368 1 2 cbr 210 ------- 1 1.0 2.0 26 28
- 0.04368 1 2 cbr 210 ------- 1 1.0 2.0 26 28
r 0.043768 1 2 cbr 210 ------- 1 1.0 2.0 20 22
+ 0.04536 1 2 cbr 210 ------- 1 1.0 2.0 27 29
- 0.04536 1 2 cbr 210 ------- 1 1.0 2.0 27 29
r 0.045448 1 2 cbr 210 ------- 1 1.0 2.0 21 23
+ 0.04704 1 2 cbr 210 ------- 1 1.0 2.0 28 30
- 0.04704 1 2 cbr 210 ------- 1 1.0 2.0 28 30
r 0.047128 1 2 cbr 210 ------- 1 1.0 2.0 22 24
+ 0.04872 1 2 cbr 210 ------- 1 1.0 2.0 29 31
- 0.04872 1 2 cbr 210 ------- 1 1.0 2.0 29 31
r 0.048808 1 2 cbr 210 ------- 1 1.0 2.0 23 25
+ 0.0504 1 2 cbr 210 ------- 1 1.0 2.0 30 32
- 0.0504 1 2 cbr 210 ------- 1 1.0 2.0 30 32
r 0.050488 1 2 cbr 210 ------- 1 1.0 2.0 24 26
+ 0.05208 1 2 cbr 210 ------- 1 1.0 2.0 31 33
- 0.05208 1 2 cbr 210 ------- 1 1.0 2.0 31 33
r 0.052168 1 2 cbr 210 ------- 1 1.0 2.0 25 27
r 0.052464 2 1 ack 40 ------- 2 3.0 0.0 0 21
+ 0.052464 1 0 ack 40 ------- 2 3.0 0.0 0 21
- 0.052464 1 0 ack 40 ------- 2 3.0 0.0 0 21
+ 0.05376 1 2 cbr 210 ------- 1 1.0 2.0 32 34
- 0.05376 1 2 cbr 210 ------- 1 1.0 2.0 32 34
r 0.053848 1 2 cbr 210 ------- 1 1.0 2.0 26 28
+ 0.05544 1 2 cbr 210 ------- 1 1.0 2.0 33 35
- 0.05544 1 2 cbr 210 ------- 1 1.0 2.0 33 35
r 0.055528 1 2 cbr 210 ------- 1 1.0 2.0 27 29
+ 0.05712 1 2 cbr 210 ------- 1 1.0 2.0 34 36
- 0.05712 1 2 cbr 210 ------- 1 1.0 2.0 34 36
r 0.057208 1 2 cbr 210 ------- 1 1.0 2.0 28 30
+ 0.0588 1 2 cbr 210 ------- 1 1.0 2.0 35 37
- 0.0588 1 2 cbr 210 ------- 1 1.0 2.0 35 37
r 0.058888 1 2 cbr 210 ------- 1 1.0 2.0 29 31
+ 0.06048 1 2 cbr 210 ------- 1 1.0 2.0 36 38
- 0.06048 1 2 cbr 210 ------- 1 1.0 2.0 36 38
r 0.060568 1 2 cbr 210 ------- 1 1.0 2.0 30 32
+ 0.06216 1 2 cbr 210 ------- 1 1.0 2.0 37 39
- 0.06216 1 2 cbr 210 ------- 1 1.0 2.0 37 39
r 0.062248 1 2 cbr 210 ------- 1 1.0 2.0 31 33
r 0.062496 1 0 ack 40 ------- 2 3.0 0.0 0 21
+ 0.062496 0 1 tcp 1000 ------- 2 0.0 3.0 1 40
- 0.062496 0 1 tcp 1000 ------- 2 0.0 3.0 1 40
+ 0.06384 1 2 cbr 210 ------- 1 1.0 2.0 38 41
- 0.06384 1 2 cbr 210 ------- 1 1.0 2.0 38 41
r 0.063928 1 2 cbr 210 ------- 1 1.0 2.0 32 34
+ 0.06552 1 2 cbr 210 ------- 1 1.0 2.0 39 42
- 0.06552 1 2 cbr 210 ------- 1 1.0 2.0 39 42
r 0.065608 1 2 cbr 210 ------- 1 1.0 2.0 33 35
+ 0.0672 1 2 cbr 210 ------- 1 1.0 2.0 40 43
- 0.0672 1 2 cbr 210 ------- 1 1.0 2.0 40 43
r 0.067288 1 2 cbr 210 ------- 1 1.0 2.0 34 36
+ 0.06888 1 2 cbr 210 ------- 1 1.0 2.0 41 44
- 0.06888 1 2 cbr 210 ------- 1 1.0 2.0 41 44
r 0.068968 1 2 cbr 210 ------- 1 1.0 2.0 35 37
+ 0.07056 1 2 cbr 210 ------- 1 1.0 2.0 42 45
- 0.07056 1 2 cbr 210 ------- 1 1.0 2.0 42 45
r 0.070648 1 2 cbr 210 ------- 1 1.0 2.0 36 38
+ 0.07224 1 2 cbr 210 ------- 1 1.0 2.0 43 46
- 0.07224 1 2 cbr 210 ------- 1 1.0 2.0 43 46
r 0.072328 1 2 cbr 210 ------- 1 1.0 2.0 37 39
r 0.073296 0 1 tcp 1000 ------- 2 0.0 3.0 1 40
+ 0.073296 1 2 tcp 1000 ------- 2 0.0 3.0 1 40
- 0.073296 1 2 tcp 1000 ------- 2 0.0 3.0 1 40
+ 0.07392 1 2 cbr 210 ------- 1 1.0 2.0 44 47
r 0.074008 1 2 cbr 210 ------- 1 1.0 2.0 38 41
- 0.074096 1 2 cbr 210 ------- 1 1.0 2.0 44 47
+ 0.0756 1 2 cbr 210 ------- 1 1.0 2.0 45 48
- 0.0756 1 2 cbr 210 ------- 1 1.0 2.0 45 48
r 0.075688 1 2 cbr 210 ------- 1 1.0 2.0 39 42
+ 0.07728 1 2 cbr 210 ------- 1 1.0 2.0 46 49
- 0.07728 1 2 cbr 210 ------- 1 1.0 2.0 46 49
r 0.077368 1 2 cbr 210 ------- 1 1.0 2.0 40 43
+ 0.07896 1 2 cbr 210 ------- 1 1.0 2.0 47 50
- 0.07896 1 2 cbr 210 ------- 1 1.0 2.0 47 50
r 0.079048 1 2 cbr 210 ------- 1 1.0 2.0 41 44
+ 0.08064 1 2 cbr 210 ------- 1 1.0 2.0 48 51
- 0.08064 1 2 cbr 210 ------- 1 1.0 2.0 48 51
r 0.080728 1 2 cbr 210 ------- 1 1.0 2.0 42 45
+ 0.08232 1 2 cbr 210 ------- 1 1.0 2.0 49 52
- 0.08232 1 2 cbr 210 ------- 1 1.0 2.0 49 52
r 0.082408 1 2 cbr 210 ------- 1 1.0 2.0 43 46
+ 0.084 1 2 cbr 210 ------- 1 1.0 2.0 50 53
- 0.084 1 2 cbr 210 ------- 1 1.0 2.0 50 53
r 0.084096 1 2 tcp 1000 ------- 2 0.0 3.0 1 40
+ 0.084096 2 3 tcp 1000 ------- 2 0.0 3.0 1 40
- 0.084096 2 3 tcp 1000 ------- 2 0.0 3.0 1 40
r 0.084264 1 2 cbr 210 ------- 1 1.0 2.0 44 47
+ 0.08568 1 2 cbr 210 ------- 1 1.0 2.0 51 54
- 0.08568 1 2 cbr 210 ------- 1 1.0 2.0 51 54
r 0.085768 1 2 cbr 210 ------- 1 1.0 2.0 45 48
+ 0.08736 1 2 cbr 210 ------- 1 1.0 2.0 52 55
- 0.08736 1 2 cbr 210 ------- 1 1.0 2.0 52 55
r 0.087448 1 2 cbr 210 ------- 1 1.0 2.0 46 49
+ 0.08904 1 2 cbr 210 ------- 1 1.0 2.0 53 56
- 0.08904 1 2 cbr 210 ------- 1 1.0 2.0 53 56
r 0.089128 1 2 cbr 210 ------- 1 1.0 2.0 47 50
+ 0.09072 1 2 cbr 210 ------- 1 1.0 2.0 54 57
- 0.09072 1 2 cbr 210 ------- 1 1.0 2.0 54 57
r 0.090808 1 2 cbr 210 ------- 1 1.0 2.0 48 51
+ 0.0924 1 2 cbr 210 ------- 1 1.0 2.0 55 58
- 0.0924 1 2 cbr 210 ------- 1 1.0 2.0 55 58
r 0.092488 1 2 cbr 210 ------- 1 1.0 2.0 49 52
+ 0.09408 1 2 cbr 210 ------- 1 1.0 2.0 56 59
- 0.09408 1 2 cbr 210 ------- 1 1.0 2.0 56 59
r 0.094168 1 2 cbr 210 ------- 1 1.0 2.0 50 53
r 0.094896 2 3 tcp 1000 ------- 2 0.0 3.0 1 40
+ 0.094896 3 2 ack 40 ------- 2 3.0 0.0 1 60
- 0.094896 3 2 ack 40 ------- 2 3.0 0.0 1 60
+ 0.09576 1 2 cbr 210 ------- 1 1.0 2.0 57 61
- 0.09576 1 2 cbr 210 ------- 1 1.0 2.0 57 61
r 0.095848 1 2 cbr 210 ------- 1 1.0 2.0 51 54
+ 0.09744 1 2 cbr 210 ------- 1 1.0 2.0 58 62
- 0.09744 1 2 cbr 210 ------- 1 1.0 2.0 58 62
r 0.097528 1 2 cbr 210 ------- 1 1.0 2.0 52 55
+ 0.09912 1 2 cbr 210 ------- 1 1.0 2.0 59 63
- 0.09912 1 2 cbr 210 ------- 1 1.0 2.0 59 63
r 0.099208 1 2 cbr 210 ------- 1 1.0 2.0 53 56
+ 0.1008 1 2 cbr 210 ------- 1 1.0 2.0 60 64
- 0.1008 1 2 cbr 210 ------- 1 1.0 2.0 60 64
r 0.100888 1 2 cbr 210 ------- 1 1.0 2.0 54 57
+ 0.10248 1 2 cbr 210 ------- 1 1.0 2.0 61 65
- 0.10248 1 2 cbr 210 ------- 1 1.0 2.0 61 65
r 0.102568 1 2 cbr 210 ------- 1 1.0 2.0 55 58
+ 0.10416 1 2 cbr 210 ------- 1 1.0 2.0 62 66
- 0.10416 1 2 cbr 210 ------- 1 1.0 2.0 62 66
r 0.104248 1 2 cbr 210 ------- 1 1.0 2.0 56 59
r 0.104928 3 2 ack 40 ------- 2 3.0 0.0 1 60
+ 0.104928 2 1 ack 40 ------- 2 3.0 0.0 1 60
- 0.104928 2 1 ack 40 ------- 2 3.0 0.0 1 60
+ 0.10584 1 2 cbr 210 ------- 1 1.0 2.0 63 67
- 0.10584 1 2 cbr 210 ------- 1 1.0 2.0 63 67
r 0.105928 1 2 cbr 210 ------- 1 1.0 2.0 57 61
+ 0.10752 1 2 cbr 210 ------- 1 1.0 2.0 64 68
- 0.10752 1 2 cbr 210 ------- 1 1.0 2.0 64 68
r 0.107608 1 2 cbr 210 ------- 1 1.0 2.0 58 62
+ 0.1092 1 2 cbr 210 ------- 1 1.0 2.0 65 69
- 0.1092 1 2 cbr 210 ------- 1 1.0 2.0 65 69
r 0.109288 1 2 cbr 210 ------- 1 1.0 2.0 59 63
+ 0.11088 1 2 cbr 210 ------- 1 1.0 2.0 66 70
- 0.11088 1 2 cbr 210 ------- 1 1.0 2.0 66 70
r 0.110968 1 2 cbr 210 ------- 1 1.0 2.0 60 64
+ 0.11256 1 2 cbr 210 ------- 1 1.0 2.0 67 71
- 0.11256 1 2 cbr 210 ------- 1 1.0 2.0 67 71
r 0.112648 1 2 cbr 210 ------- 1 1.0 2.0 61 65
+ 0.11424 1 2 cbr 210 ------- 1 1.0 2.0 68 72
- 0.11424 1 2 cbr 210 ------- 1 1.0 2.0 68 72
r 0.114328 1 2 cbr 210 ------- 1 1.0 2.0 62 66
r 0.11496 2 1 ack 40 ------- 2 3.0 0.0 1 60
+ 0.11496 1 0 ack 40 ------- 2 3.0 0.0 1 60
- 0.11496 1 0 ack 40 ------- 2 3.0 0.0 1 60
+ 0.11592 1 2 cbr 210 ------- 1 1.0 2.0 69 73
- 0.11592 1 2 cbr 210 ------- 1 1.0 2.0 69 73
r 0.116008 1 2 cbr 210 ------- 1 1.0 2.0 63 67
+ 0.1176 1 2 cbr 210 ------- 1 1.0 2.0 70 74
- 0.1176 1 2 cbr 210 ------- 1 1.0 2.0 70 74
r 0.117688 1 2 cbr 210 ------- 1 1.0 2.0 64 68
+ 0.11928 1 2 cbr 210 ------- 1 1.0 2.0 71 75
- 0.11928 1 2 cbr 210 ------- 1 1.0 2.0 71 75
r 0.119368 1 2 cbr 210 ------- 1 1.0 2.0 65 69
+ 0.12096 1 2 cbr 210 ------- 1 1.0 2.0 72 76
- 0.12096 1 2 cbr 210 ------- 1 1.0 2.0 72 76
r 0.121048 1 2 cbr 210 ------- 1 1.0 2.0 66 70
+ 0.12264 1 2 cbr 210 ------- 1 1.0 2.0 73 77
- 0.12264 1 2 cbr 210 ------- 1 1.0 2.0 73 77
r 0.122728 1 2 cbr 210 ------- 1 1.0 2.0 67 71
+ 0.12432 1 2 cbr 210 ------- 1 1.0 2.0 74 78
- 0.12432 1 2 cbr 210 ------- 1 1.0 2.0 74 78
r 0.124408 1 2 cbr 210 ------- 1 1.0 2.0 68 72
r 0.124992 1 0 ack 40 ------- 2 3.0 0.0 1 60
+ 0.124992 0 1 tcp 1000 ------- 2 0.0 3.0 2 79
- 0.124992 0 1 tcp 1000 ------- 2 0.0 3.0 2 79
+ 0.124992 0 1 tcp 1000 ------- 2 0.0 3.0 3 80
+ 0.124992 0 1 tcp 1000 ------- 2 0.0 3.0 4 81
- 0.125792 0 1 tcp 1000 ------- 2 0.0 3.0 3 80
+ 0.126 1 2 cbr 210 ------- 1 1.0 2.0 75 82
- 0.126 1 2 cbr 210 ------- 1 1.0 2.0 75 82
r 0.126088 1 2 cbr 210 ------- 1 1.0 2.0 69 73
- 0.126592 0 1 tcp 1000 ------- 2 0.0 3.0 4 81
+ 0.12768 1 2 cbr 210 ------- 1 1.0 2.0 76 83
- 0.12768 1 2 cbr 210 ------- 1 1.0 2.0 76 83
r 0.127768 1 2 cbr 210 ------- 1 1.0 2.0 70 74
+ 0.12936 1 2 cbr 210 ------- 1 1.0 2.0 77 84
- 0.12936 1 2 cbr 210 ------- 1 1.0 2.0 77 84
r 0.129448 1 2 cbr 210 ------- 1 1.0 2.0 71 75
+ 0.13104 1 2 cbr 210 ------- 1 1.0 2.0 78 85
- 0.13104 1 2 cbr 210 ------- 1 1.0 2.0 78 85
r 0.131128 1 2 cbr 210 ------- 1 1.0 2.0 72 76
+ 0.13272 1 2 cbr 210 ------- 1 1.0 2.0 79 86
- 0.13272 1 2 cbr 210 ------- 1 1.0 2.0 79 86
r 0.132808 1 2 cbr 210 ------- 1 1.0 2.0 73 77
+ 0.1344 1 2 cbr 210 ------- 1 1.0 2.0 80 87
- 0.1344 1 2 cbr 210 ------- 1 1.0 2.0 80 87
r 0.134488 1 2 cbr 210 ------- 1 1.0 2.0 74 78
r 0.135792 0 1 tcp 1000 ------- 2 0.0 3.0 2 79
+ 0.135792 1 2 tcp 1000 ------- 2 0.0 3.0 2 79
- 0.135792 1 2 tcp 1000 ------- 2 0.0 3.0 2 79
+ 0.13608 1 2 cbr 210 ------- 1 1.0 2.0 81 88
r 0.136168 1 2 cbr 210 ------- 1 1.0 2.0 75 82
- 0.136592 1 2 cbr 210 ------- 1 1.0 2.0 81 88
r 0.136592 0 1 tcp 1000 ------- 2 0.0 3.0 3 80
+ 0.136592 1 2 tcp 1000 ------- 2 0.0 3.0 3 80
- 0.13676 1 2 tcp 1000 ------- 2 0.0 3.0 3 80
r 0.137392 0 1 tcp 1000 ------- 2 0.0 3.0 4 81
+ 0.137392 1 2 tcp 1000 ------- 2 0.0 3.0 4 81
- 0.13756 1 2 tcp 1000 ------- 2 0.0 3.0 4 81
+ 0.13776 1 2 cbr 210 ------- 1 1.0 2.0 82 89
r 0.137848 1 2 cbr 210 ------- 1 1.0 2.0 76 83
- 0.13836 1 2 cbr 210 ------- 1 1.0 2.0 82 89
+ 0.13944 1 2 cbr 210 ------- 1 1.0 2.0 83 90
- 0.13944 1 2 cbr 210 ------- 1 1.0 2.0 83 90
r 0.139528 1 2 cbr 210 ------- 1 1.0 2.0 77 84
+ 0.14112 1 2 cbr 210 ------- 1 1.0 2.0 84 91
- 0.14112 1 2 cbr 210 ------- 1 1.0 2.0 84 91
r 0.141208 1 2 cbr 210 ------- 1 1.0 2.0 78 85
+ 0.1428 1 2 cbr 210 ------- 1 1.0 2.0 85 92
- 0.1428 1 2 cbr 210 ------- 1 1.0 2.0 85 92
r 0.142888 1 2 cbr 210 ------- 1 1.0 2.0 79 86
+ 0.14448 1 2 cbr 210 ------- 1 1.0 2.0 86 93
- 0.14448 1 2 cbr 210 ------- 1 1.0 2.0 86 93
r 0.144568 1 2 cbr 210 ------- 1 1.0 2.0 80 87
+ 0.14616 1 2 cbr 210 ------- 1 1.0 2.0 87 94
- 0.14616 1 2 cbr 210 ------- 1 1.0 2.0 87 94
r 0.146592 1 2 tcp 1000 ------- 2 0.0 3.0 2 79
+ 0.146592 2 3 tcp 1000 ------- 2 0.0 3.0 2 79
- 0.146592 2 3 tcp 1000 ------- 2 0.0 3.0 2 79
r 0.14676 1 2 cbr 210 ------- 1 1.0 2.0 81 88
r 0.14756 1 2 tcp 1000 ------- 2 0.0 3.0 3 80
+ 0.14756 2 3 tcp 1000 ------- 2 0.0 3.0 3 80
- 0.14756 2 3 tcp 1000 ------- 2 0.0 3.0 3 80
+ 0.14784 1 2 cbr 210 ------- 1 1.0 2.0 88 95
- 0.14784 1 2 cbr 210 ------- 1 1.0 2.0 88 95
r 0.14836 1 2 tcp 1000 ------- 2 0.0 3.0 4 81
+ 0.14836 2 3 tcp 1000 ------- 2 0.0 3.0 4 81
- 0.14836 2 3 tcp 1000 ------- 2 0.0 3.0 4 81
r 0.148528 1 2 cbr 210 ------- 1 1.0 2.0 82 89
+ 0.14952 1 2 cbr 210 ------- 1 1.0 2.0 89 96
- 0.14952 1 2 cbr 210 ------- 1 1.0 2.0 89 96
r 0.149608 1 2 cbr 210 ------- 1 1.0 2.0 83 90
+ 0.1512 1 2 cbr 210 ------- 1 1.0 2.0 90 97
- 0.1512 1 2 cbr 210 ------- 1 1.0 2.0 90 97
r 0.151288 1 2 cbr 210 ------- 1 1.0 2.0 84 91
+ 0.15288 1 2 cbr 210 ------- 1 1.0 2.0 91 98
- 0.15288 1 2 cbr 210 ------- 1 1.0 2.0 91 98
r 0.152968 1 2 cbr 210 ------- 1 1.0 2.0 85 92
+ 0.15456 1 2 cbr 210 ------- 1 1.0 2.0 92 99
- 0.15456 1 2 cbr 210 ------- 1 1.0 2.0 92 99
r 0.154648 1 2 cbr 210 ------- 1 1.0 2.0 86 93
+ 0.15624 1 2 cbr 210 ------- 1 1.0 2.0 93 100
- 0.15624 1 2 cbr 210 ------- 1 1.0 2.0 93 100
r 0.156328 1 2 cbr 210 ------- 1 1.0 2.0 87 94
r 0.157392 2 3 tcp 1000 ------- 2 0.0 3.0 2 79
+ 0.157392 3 2 ack 40 ------- 2 3.0 0.0 2 101
- 0.157392 3 2 ack 40 ------- 2 3.0 0.0 2 101
+ 0.15792 1 2 cbr 210 ------- 1 1.0 2.0 94 102
- 0.15792 1 2 cbr 210 ------- 1 1.0 2.0 94 102
r 0.158008 1 2 cbr 210 ------- 1 1.0 2.0 88 95
r 0.15836 2 3 tcp 1000 ------- 2 0.0 3.0 3 80
+ 0.15836 3 2 ack 40 ------- 2 3.0 0.0 3 103
- 0.15836 3 2 ack 40 ------- 2 3.0 0.0 3 103
r 0.15916 2 3 tcp 1000 ------- 2 0.0 3.0 4 81
+ 0.15916 3 2 ack 40 ------- 2 3.0 0.0 4 104
- 0.15916 3 2 ack 40 ------- 2 3.0 0.0 4 104
+ 0.1596 1 2 cbr 210 ------- 1 1.0 2.0 95 105
- 0.1596 1 2 cbr 210 ------- 1 1.0 2.0 95 105
r 0.159688 1 2 cbr 210 ------- 1 1.0 2.0 89 96
+ 0.16128 1 2 cbr 210 ------- 1 1.0 2.0 96 106
- 0.16128 1 2 cbr 210 ------- 1 1.0 2.0 96 106
r 0.161368 1 2 cbr 210 ------- 1 1.0 2.0 90 97
+ 0.16296 1 2 cbr 210 ------- 1 1.0 2.0 97 107
- 0.16296 1 2 cbr 210 ------- 1 1.0 2.0 97 107
r 0.163048 1 2 cbr 210 ------- 1 1.0 2.0 91 98
+ 0.16464 1 2 cbr 210 ------- 1 1.0 2.0 98 108
- 0.16464 1 2 cbr 210 ------- 1 1.0 2.0 98 108
r 0.164728 1 2 cbr 210 ------- 1 1.0 2.0 92 99
+ 0.16632 1 2 cbr 210 ------- 1 1.0 2.0 99 109
- 0.16632 1 2 cbr 210 ------- 1 1.0 2.0 99 109
r 0.166408 1 2 cbr 210 ------- 1 1.0 2.0 93 100
r 0.167424 3 2 ack 40 ------- 2 3.0 0.0 2 101
+ 0.167424 2 1 ack 40 ------- 2 3.0 0.0 2 101
- 0.167424 2 1 ack 40 ------- 2 3.0 0.0 2 101
+ 0.168 1 2 cbr 210 ------- 1 1.0 2.0 100 110
- 0.168 1 2 cbr 210 ------- 1 1.0 2.0 100 110
r 0.168088 1 2 cbr 210 ------- 1 1.0 2.0 94 102
r 0.168392 3 2 ack 40 ------- 2 3.0 0.0 3 103
+ 0.168392 2 1 ack 40 ------- 2 3.0 0.0 3 103
- 0.168392 2 1 ack 40 ------- 2 3.0 0.0 3 103
r 0.169192 3 2 ack 40 ------- 2 3.0 0.0 4 104
+ 0.169192 2 1 ack 40 ------- 2 3.0 0.0 4 104
- 0.169192 2 1 ack 40 ------- 2 3.0 0.0 4 104
+ 0.16968 1 2 cbr 210 ------- 1 1.0 2.0 101 111
- 0.16968 1 2 cbr 210 ------- 1 1.0 2.0 101 111
r 0.169768 1 2 cbr 210 ------- 1 1.0 2.0 95 105
+ 0.17136 1 2 cbr 210 ------- 1 1.0 2.0 102 112
- 0.17136 1 2 cbr 210 ------- 1 1.0 2.0 102 112
r 0.171448 1 2 cbr 210 ------- 1 1.0 2.0 96 106
+ 0.17304 1 2 cbr 210 ------- 1 1.0 2.0 103 113
- 0.17304 1 2 cbr 210 ------- 1 1.0 2.0 103 113
r 0.173128 1 2 cbr 210 ------- 1 1.0 2.0 97 107
+ 0.17472 1 2 cbr 210 ------- 1 1.0 2.0 104 114
- 0.17472 1 2 cbr 210 ------- 1 1.0 2.0 104 114
r 0.174808 1 2 cbr 210 ------- 1 1.0 2.0 98 108
+ 0.1764 1 2 cbr 210 ------- 1 1.0 2.0 105 115
- 0.1764 1 2 cbr 210 ------- 1 1.0 2.0 105 115
r 0.176488 1 2 cbr 210 ------- 1 1.0 2.0 99 109
r 0.177456 2 1 ack 40 ------- 2 3.0 0.0 2 101
+ 0.177456 1 0 ack 40 ------- 2 3.0 0.0 2 101
- 0.177456 1 0 ack 40 ------- 2 3.0 0.0 2 101
+ 0.17808 1 2 cbr 210 ------- 1 1.0 2.0 106 116
- 0.17808 1 2 cbr 210 ------- 1 1.0 2.0 106 116
r 0.178168 1 2 cbr 210 ------- 1 1.0 2.0 100 110
r 0.178424 2 1 ack 40 ------- 2 3.0 0.0 3 103
+ 0.178424 1 0 ack 40 ------- 2 3.0 0.0 3 103
- 0.178424 1 0 ack 40 ------- 2 3.0 0.0 3 103
r 0.179224 2 1 ack 40 ------- 2 3.0 0.0 4 104
+ 0.179224 1 0 ack 40 ------- 2 3.0 0.0 4 104
- 0.179224 1 0 ack 40 ------- 2 3.0 0.0 4 104
+ 0.17976 1 2 cbr 210 ------- 1 1.0 2.0 107 117
- 0.17976 1 2 cbr 210 ------- 1 1.0 2.0 107 117
r 0.179848 1 2 cbr 210 ------- 1 1.0 2.0 101 111
+ 0.18144 1 2 cbr 210 ------- 1 1.0 2.0 108 118
- 0.18144 1 2 cbr 210 ------- 1 1.0 2.0 108 118
r 0.181528 1 2 cbr 210 ------- 1 1.0 2.0 102 112
+ 0.18312 1 2 cbr 210 ------- 1 1.0 2.0 109 119
- 0.18312 1 2 cbr 210 ------- 1 1.0 2.0 109 119
r 0.183208 1 2 cbr 210 ------- 1 1.0 2.0 103 113
+ 0.1848 1 2 cbr 210 ------- 1 1.0 2.0 110 120
- 0.1848 1 2 cbr 210 ------- 1 1.0 2.0 110 120
r 0.184888 1 2 cbr 210 ------- 1 1.0 2.0 104 114
+ 0.18648 1 2 cbr 210 ------- 1 1.0 2.0 111 121
- 0.18648 1 2 cbr 210 ------- 1 1.0 2.0 111 121
r 0.186568 1 2 cbr 210 ------- 1 1.0 2.0 105 115
r 0.187488 1 0 ack 40 ------- 2 3.0 0.0 2 101
+ 0.187488 0 1 tcp 1000 ------- 2 0.0 3.0 5 122
- 0.187488 0 1 tcp 1000 ------- 2 0.0 3.0 5 122
+ 0.18816 1 2 cbr 210 ------- 1 1.0 2.0 112 123
- 0.18816 1 2 cbr 210 ------- 1 1.0 2.0 112 123
r 0.188248 1 2 cbr 210 ------- 1 1.0 2.0 106 116
r 0.188456 1 0 ack 40 ------- 2 3.0 0.0 3 103
+ 0.188456 0 1 tcp 1000 ------- 2 0.0 3.0 6 124
- 0.188456 0 1 tcp 1000 ------- 2 0.0 3.0 6 124
r 0.189256 1 0 ack 40 ------- 2 3.0 0.0 4 104
+ 0.189256 0 1 tcp 1000 ------- 2 0.0 3.0 7 125
- 0.189256 0 1 tcp 1000 ------- 2 0.0 3.0 7 125
+ 0.18984 1 2 cbr 210 ------- 1 1.0 2.0 113 126
- 0.18984 1 2 cbr 210 ------- 1 1.0 2.0 113 126
r 0.189928 1 2 cbr 210 ------- 1 1.0 2.0 107 117
+ 0.19152 1 2 cbr 210 ------- 1 1.0 2.0 114 127
- 0.19152 1 2 cbr 210 ------- 1 1.0 2.0 114 127
r 0.191608 1 2 cbr 210 ------- 1 1.0 2.0 108 118
+ 0.1932 1 2 cbr 210 ------- 1 1.0 2.0 115 128
- 0.1932 1 2 cbr 210 ------- 1 1.0 2.0 115 128
r 0.193288 1 2 cbr 210 ------- 1 1.0 2.0 109 119
+ 0.19488 1 2 cbr 210 ------- 1 1.0 2.0 116 129
- 0.19488 1 2 cbr 210 ------- 1 1.0 2.0 116 129
r 0.194968 1 2 cbr 210 ------- 1 1.0 2.0 110 120
+ 0.19656 1 2 cbr 210 ------- 1 1.0 2.0 117 130
- 0.19656 1 2 cbr 210 ------- 1 1.0 2.0 117 130
r 0.196648 1 2 cbr 210 ------- 1 1.0 2.0 111 121
+ 0.19824 1 2 cbr 210 ------- 1 1.0 2.0 118 131
- 0.19824 1 2 cbr 210 ------- 1 1.0 2.0 118 131
r 0.198288 0 1 tcp 1000 ------- 2 0.0 3.0 5 122
+ 0.198288 1 2 tcp 1000 ------- 2 0.0 3.0 5 122
r 0.198328 1 2 cbr 210 ------- 1 1.0 2.0 112 123
- 0.198408 1 2 tcp 1000 ------- 2 0.0 3.0 5 122
r 0.199256 0 1 tcp 1000 ------- 2 0.0 3.0 6 124
+ 0.199256 1 2 tcp 1000 ------- 2 0.0 3.0 6 124
- 0.199256 1 2 tcp 1000 ------- 2 0.0 3.0 6 124
+ 0.19992 1 2 cbr 210 ------- 1 1.0 2.0 119 132
r 0.200008 1 2 cbr 210 ------- 1 1.0 2.0 113 126
r 0.200056 0 1 tcp 1000 ------- 2 0.0 3.0 7 125
+ 0.200056 1 2 tcp 1000 ------- 2 0.0 3.0 7 125
- 0.200056 1 2 cbr 210 ------- 1 1.0 2.0 119 132
- 0.200224 1 2 tcp 1000 ------- 2 0.0 3.0 7 125
+ 0.2016 1 2 cbr 210 ------- 1 1.0 2.0 120 133
- 0.2016 1 2 cbr 210 ------- 1 1.0 2.0 120 133
r 0.201688 1 2 cbr 210 ------- 1 1.0 2.0 114 127
+ 0.20328 1 2 cbr 210 ------- 1 1.0 2.0 121 134
- 0.20328 1 2 cbr 210 ------- 1 1.0 2.0 121 134
r 0.203368 1 2 cbr 210 ------- 1 1.0 2.0 115 128
+ 0.20496 1 2 cbr 210 ------- 1 1.0 2.0 122 135
- 0.20496 1 2 cbr 210 ------- 1 1.0 2.0 122 135
r 0.205048 1 2 cbr 210 ------- 1 1.0 2.0 116 129
+ 0.20664 1 2 cbr 210 ------- 1 1.0 2.0 123 136
- 0.20664 1 2 cbr 210 ------- 1 1.0 2.0 123 136
r 0.206728 1 2 cbr 210 ------- 1 1.0 2.0 117 130
+ 0.20832 1 2 cbr 210 ------- 1 1.0 2.0 124 137
- 0.20832 1 2 cbr 210 ------- 1 1.0 2.0 124 137
r 0.208408 1 2 cbr 210 ------- 1 1.0 2.0 118 131
r 0.209208 1 2 tcp 1000 ------- 2 0.0 3.0 5 122
+ 0.209208 2 3 tcp 1000 ------- 2 0.0 3.0 5 122
- 0.209208 2 3 tcp 1000 ------- 2 0.0 3.0 5 122
+ 0.21 1 2 cbr 210 ------- 1 1.0 2.0 125 138
- 0.21 1 2 cbr 210 ------- 1 1.0 2.0 125 138
r 0.210056 1 2 tcp 1000 ------- 2 0.0 3.0 6 124
+ 0.210056 2 3 tcp 1000 ------- 2 0.0 3.0 6 124
- 0.210056 2 3 tcp 1000 ------- 2 0.0 3.0 6 124
r 0.210224 1 2 cbr 210 ------- 1 1.0 2.0 119 132
r 0.211024 1 2 tcp 1000 ------- 2 0.0 3.0 7 125
+ 0.211024 2 3 tcp 1000 ------- 2 0.0 3.0 7 125
- 0.211024 2 3 tcp 1000 ------- 2 0.0 3.0 7 125
+ 0.21168 1 2 cbr 210 ------- 1 1.0 2.0 126 139
- 0.21168 1 2 cbr 210 ------- 1 1.0 2.0 126 139
r 0.211768 1 2 cbr 210 ------- 1 1.0 2.0 120 133
+ 0.21336 1 2 cbr 210 ------- 1 1.0 2.0 127 140
- 0.21336 1 2 cbr 210 ------- 1 1.0 2.0 127 140
r 0.213448 1 2 cbr 210 ------- 1 1.0 2.0 121 134
+ 0.21504 1 2 cbr 210 ------- 1 1.0 2.0 128 141
- 0.21504 1 2 cbr 210 ------- 1 1.0 2.0 128 141
r 0.215128 1 2 cbr 210 ------- 1 1.0 2.0 122 135
+ 0.21672 1 2 cbr 210 ------- 1 1.0 2.0 129 142
- 0.21672 1 2 cbr 210 ------- 1 1.0 2.0 129 142
r 0.216808 1 2 cbr 210 ------- 1 1.0 2.0 123 136
+ 0.2184 1 2 cbr 210 ------- 1 1.0 2.0 130 143
- 0.2184 1 2 cbr 210 ------- 1 1.0 2.0 130 143
r 0.218488 1 2 cbr 210 ------- 1 1.0 2.0 124 137
r 0.220008 2 3 tcp 1000 ------- 2 0.0 3.0 5 122
+ 0.220008 3 2 ack 40 ------- 2 3.0 0.0 5 144
- 0.220008 3 2 ack 40 ------- 2 3.0 0.0 5 144
+ 0.22008 1 2 cbr 210 ------- 1 1.0 2.0 131 145
- 0.22008 1 2 cbr 210 ------- 1 1.0 2.0 131 145
r 0.220168 1 2 cbr 210 ------- 1 1.0 2.0 125 138
r 0.220856 2 3 tcp 1000 ------- 2 0.0 3.0 6 124
+ 0.220856 3 2 ack 40 ------- 2 3.0 0.0 6 146
- 0.220856 3 2 ack 40 ------- 2 3.0 0.0 6 146
+ 0.22176 1 2 cbr 210 ------- 1 1.0 2.0 132 147
- 0.22176 1 2 cbr 210 ------- 1 1.0 2.0 132 147
r 0.221824 2 3 tcp 1000 ------- 2 0.0 3.0 7 125
+ 0.221824 3 2 ack 40 ------- 2 3.0 0.0 7 148
- 0.221824 3 2 ack 40 ------- 2 3.0 0.0 7 148
r 0.221848 1 2 cbr 210 ------- 1 1.0 2.0 126 139
+ 0.22344 1 2 cbr 210 ------- 1 1.0 2.0 133 149
- 0.22344 1 2 cbr 210 ------- 1 1.0 2.0 133 149
r 0.223528 1 2 cbr 210 ------- 1 1.0 2.0 127 140
+ 0.22512 1 2 cbr 210 ------- 1 1.0 2.0 134 150
- 0.22512 1 2 cbr 210 ------- 1 1.0 2.0 134 150
r 0.225208 1 2 cbr 210 ------- 1 1.0 2.0 128 141
+ 0.2268 1 2 cbr 210 ------- 1 1.0 2.0 135 151
- 0.2268 1 2 cbr 210 ------- 1 1.0 2.0 135 151
r 0.226888 1 2 cbr 210 ------- 1 1.0 2.0 129 142
+ 0.22848 1 2 cbr 210 ------- 1 1.0 2.0 136 152
- 0.22848 1 2 cbr 210 ------- 1 1.0 2.0 136 152
r 0.228568 1 2 cbr 210 ------- 1 1.0 2.0 130 143
r 0.23004 3 2 ack 40 ------- 2 3.0 0.0 5 144
+ 0.23004 2 1 ack 40 ------- 2 3.0 0.0 5 144
- 0.23004 2 1 ack 40 ------- 2 3.0 0.0 5 144
+ 0.23016 1 2 cbr 210 ------- 1 1.0 2.0 137 153
- 0.23016 1 2 cbr 210 ------- 1 1.0 2.0 137 153
r 0.230248 1 2 cbr 210 ------- 1 1.0 2.0 131 145
r 0.230888 3 2 ack 40 ------- 2 3.0 0.0 6 146
+ 0.230888 2 1 ack 40 ------- 2 3.0 0.0 6 146
- 0.230888 2 1 ack 40 ------- 2 3.0 0.0 6 146
+ 0.23184 1 2 cbr 210 ------- 1 1.0 2.0 138 154
- 0.23184 1 2 cbr 210 ------- 1 1.0 2.0 138 154
r 0.231856 3 2 ack 40 ------- 2 3.0 0.0 7 148
+ 0.231856 2 1 ack 40 ------- 2 3.0 0.0 7 148
- 0.231856 2 1 ack 40 ------- 2 3.0 0.0 7 148
r 0.231928 1 2 cbr 210 ------- 1 1.0 2.0 132 147
+ 0.23352 1 2 cbr 210 ------- 1 1.0 2.0 139 155
- 0.23352 1 2 cbr 210 ------- 1 1.0 2.0 139 155
r 0.233608 1 2 cbr 210 ------- 1 1.0 2.0 133 149
+ 0.2352 1 2 cbr 210 ------- 1 1.0 2.0 140 156
- 0.2352 1 2 cbr 210 ------- 1 1.0 2.0 140 156
r 0.235288 1 2 cbr 210 ------- 1 1.0 2.0 134 150
+ 0.23688 1 2 cbr 210 ------- 1 1.0 2.0 141 157
- 0.23688 1 2 cbr 210 ------- 1 1.0 2.0 141 157
r 0.236968 1 2 cbr 210 ------- 1 1.0 2.0 135 151
+ 0.23856 1 2 cbr 210 ------- 1 1.0 2.0 142 158
- 0.23856 1 2 cbr 210 ------- 1 1.0 2.0 142 158
r 0.238648 1 2 cbr 210 ------- 1 1.0 2.0 136 152
r 0.240072 2 1 ack 40 ------- 2 3.0 0.0 5 144
+ 0.240072 1 0 ack 40 ------- 2 3.0 0.0 5 144
- 0.240072 1 0 ack 40 ------- 2 3.0 0.0 5 144
+ 0.24024 1 2 cbr 210 ------- 1 1.0 2.0 143 159
- 0.24024 1 2 cbr 210 ------- 1 1.0 2.0 143 159
r 0.240328 1 2 cbr 210 ------- 1 1.0 2.0 137 153
r 0.24092 2 1 ack 40 ------- 2 3.0 0.0 6 146
+ 0.24092 1 0 ack 40 ------- 2 3.0 0.0 6 146
- 0.24092 1 0 ack 40 ------- 2 3.0 0.0 6 146
r 0.241888 2 1 ack 40 ------- 2 3.0 0.0 7 148
+ 0.241888 1 0 ack 40 ------- 2 3.0 0.0 7 148
- 0.241888 1 0 ack 40 ------- 2 3.0 0.0 7 148
+ 0.24192 1 2 cbr 210 ------- 1 1.0 2.0 144 160
- 0.24192 1 2 cbr 210 ------- 1 1.0 2.0 144 160
r 0.242008 1 2 cbr 210 ------- 1 1.0 2.0 138 154
+ 0.2436 1 2 cbr 210 ------- 1 1.0 2.0 145 161
- 0.2436 1 2 cbr 210 ------- 1 1.0 2.0 145 161
r 0.243688 1 2 cbr 210 ------- 1 1.0 2.0 139 155
+ 0.24528 1 2 cbr 210 ------- 1 1.0 2.0 146 162
- 0.24528 1 2 cbr 210 ------- 1 1.0 2.0 146 162
r 0.245368 1 2 cbr 210 ------- 1 1.0 2.0 140 156
+ 0.24696 1 2 cbr 210 ------- 1 1.0 2.0 147 163
- 0.24696 1 2 cbr 210 ------- 1 1.0 2.0 147 163
r 0.247048 1 2 cbr 210 ------- 1 1.0 2.0 141 157
+ 0.24864 1 2 cbr 210 ------- 1 1.0 2.0 148 164
- 0.24864 1 2 cbr 210 ------- 1 1.0 2.0 148 164
r 0.248728 1 2 cbr 210 ------- 1 1.0 2.0 142 158
r 0.250104 1 0 ack 40 ------- 2 3.0 0.0 5 144
+ 0.250104 0 1 tcp 1000 ------- 2 0.0 3.0 8 165
- 0.250104 0 1 tcp 1000 ------- 2 0.0 3.0 8 165
+ 0.250104 0 1 tcp 1000 ------- 2 0.0 3.0 9 166
+ 0.25032 1 2 cbr 210 ------- 1 1.0 2.0 149 167
- 0.25032 1 2 cbr 210 ------- 1 1.0 2.0 149 167
r 0.250408 1 2 cbr 210 ------- 1 1.0 2.0 143 159
- 0.250904 0 1 tcp 1000 ------- 2 0.0 3.0 9 166
r 0.250952 1 0 ack 40 ------- 2 3.0 0.0 6 146
+ 0.250952 0 1 tcp 1000 ------- 2 0.0 3.0 10 168
+ 0.250952 0 1 tcp 1000 ------- 2 0.0 3.0 11 169
- 0.251704 0 1 tcp 1000 ------- 2 0.0 3.0 10 168
r 0.25192 1 0 ack 40 ------- 2 3.0 0.0 7 148
+ 0.25192 0 1 tcp 1000 ------- 2 0.0 3.0 12 170
+ 0.25192 0 1 tcp 1000 ------- 2 0.0 3.0 13 171
+ 0.252 1 2 cbr 210 ------- 1 1.0 2.0 150 172
- 0.252 1 2 cbr 210 ------- 1 1.0 2.0 150 172
r 0.252088 1 2 cbr 210 ------- 1 1.0 2.0 144 160
- 0.252504 0 1 tcp 1000 ------- 2 0.0 3.0 11 169
- 0.253304 0 1 tcp 1000 ------- 2 0.0 3.0 12 170
+ 0.25368 1 2 cbr 210 ------- 1 1.0 2.0 151 173
- 0.25368 1 2 cbr 210 ------- 1 1.0 2.0 151 173
r 0.253768 1 2 cbr 210 ------- 1 1.0 2.0 145 161
- 0.254104 0 1 tcp 1000 ------- 2 0.0 3.0 13 171
+ 0.25536 1 2 cbr 210 ------- 1 1.0 2.0 152 174
- 0.25536 1 2 cbr 210 ------- 1 1.0 2.0 152 174
r 0.255448 1 2 cbr 210 ------- 1 1.0 2.0 146 162
+ 0.25704 1 2 cbr 210 ------- 1 1.0 2.0 153 175
- 0.25704 1 2 cbr 210 ------- 1 1.0 2.0 153 175
r 0.257128 1 2 cbr 210 ------- 1 1.0 2.0 147 163
+ 0.25872 1 2 cbr 210 ------- 1 1.0 2.0 154 176
- 0.25872 1 2 cbr 210 ------- 1 1.0 2.0 154 176
r 0.258808 1 2 cbr 210 ------- 1 1.0 2.0 148 164
+ 0.2604 1 2 cbr 210 ------- 1 1.0 2.0 155 177
- 0.2604 1 2 cbr 210 ------- 1 1.0 2.0 155 177
r 0.260488 1 2 cbr 210 ------- 1 1.0 2.0 149 167
r 0.260904 0 1 tcp 1000 ------- 2 0.0 3.0 8 165
+ 0.260904 1 2 tcp 1000 ------- 2 0.0 3.0 8 165
- 0.260904 1 2 tcp 1000 ------- 2 0.0 3.0 8 165
r 0.261704 0 1 tcp 1000 ------- 2 0.0 3.0 9 166
+ 0.261704 1 2 tcp 1000 ------- 2 0.0 3.0 9 166
- 0.261704 1 2 tcp 1000 ------- 2 0.0 3.0 9 166
+ 0.26208 1 2 cbr 210 ------- 1 1.0 2.0 156 178
r 0.262168 1 2 cbr 210 ------- 1 1.0 2.0 150 172
r 0.262504 0 1 tcp 1000 ------- 2 0.0 3.0 10 168
+ 0.262504 1 2 tcp 1000 ------- 2 0.0 3.0 10 168
- 0.262504 1 2 cbr 210 ------- 1 1.0 2.0 156 178
- 0.262672 1 2 tcp 1000 ------- 2 0.0 3.0 10 168
r 0.263304 0 1 tcp 1000 ------- 2 0.0 3.0 11 169
+ 0.263304 1 2 tcp 1000 ------- 2 0.0 3.0 11 169
- 0.263472 1 2 tcp 1000 ------- 2 0.0 3.0 11 169
+ 0.26376 1 2 cbr 210 ------- 1 1.0 2.0 157 179
r 0.263848 1 2 cbr 210 ------- 1 1.0 2.0 151 173
r 0.264104 0 1 tcp 1000 ------- 2 0.0 3.0 12 170
+ 0.264104 1 2 tcp 1000 ------- 2 0.0 3.0 12 170
- 0.264272 1 2 cbr 210 ------- 1 1.0 2.0 157 179
- 0.26444 1 2 tcp 1000 ------- 2 0.0 3.0 12 170
r 0.264904 0 1 tcp 1000 ------- 2 0.0 3.0 13 171
+ 0.264904 1 2 tcp 1000 ------- 2 0.0 3.0 13 171
- 0.26524 1 2 tcp 1000 ------- 2 0.0 3.0 13 171